V -t * -v 1.0a5 -a 0
A -t * -n 1 -p 0 -o 0x7fffffff -c 30 -a 1
A -t * -h 1 -m 1073741823 -s 0
c -t * -i 2 -n green
n -t * -a 0 -s 0 -S UP -v square -c orange -i orange
n -t * -a 1 -s 1 -S UP -v circle -c lightblue -i lightblue
n -t * -a 2 -s 2 -S UP -v hexagon -c blue -i blue
l -t * -s 0 -d 1 -S UP -r 900000 -D 0.02 -c black
l -t * -s 1 -d 2 -S UP -r 900000 -D 0.02 -c black
+ -t 0.5 -s 0 -d 1 -p cbr -e 512 -c 2 -i 0 -a 2 -x {0.0 2.0 0 ------- null}
- -t 0.5 -s 0 -d 1 -p cbr -e 512 -c 2 -i 0 -a 2 -x {0.0 2.0 0 ------- null}
h -t 0.5 -s 0 -d 1 -p cbr -e 512 -c 2 -i 0 -a 2 -x {0.0 2.0 -1 ------- null}
+ -t 0.505 -s 0 -d 1 -p cbr -e 512 -c 2 -i 1 -a 2 -x {0.0 2.0 1 ------- null}
- -t 0.505 -s 0 -d 1 -p cbr -e 512 -c 2 -i 1 -a 2 -x {0.0 2.0 1 ------- null}
h -t 0.505 -s 0 -d 1 -p cbr -e 512 -c 2 -i 1 -a 2 -x {0.0 2.0 -1 ------- null}
+ -t 0.51 -s 0 -d 1 -p cbr -e 512 -c 2 -i 2 -a 2 -x {0.0 2.0 2 ------- null}
- -t 0.51 -s 0 -d 1 -p cbr -e 512 -c 2 -i 2 -a 2 -x {0.0 2.0 2 ------- null}
h -t 0.51 -s 0 -d 1 -p cbr -e 512 -c 2 -i 2 -a 2 -x {0.0 2.0 -1 ------- null}
+ -t 0.515 -s 0 -d 1 -p cbr -e 512 -c 2 -i 3 -a 2 -x {0.0 2.0 3 ------- null}
- -t 0.515 -s 0 -d 1 -p cbr -e 512 -c 2 -i 3 -a 2 -x {0.0 2.0 3 ------- null}
h -t 0.515 -s 0 -d 1 -p cbr -e 512 -c 2 -i 3 -a 2 -x {0.0 2.0 -1 ------- null}
+ -t 0.52 -s 0 -d 1 -p cbr -e 512 -c 2 -i 4 -a 2 -x {0.0 2.0 4 ------- null}
- -t 0.52 -s 0 -d 1 -p cbr -e 512 -c 2 -i 4 -a 2 -x {0.0 2.0 4 ------- null}
h -t 0.52 -s 0 -d 1 -p cbr -e 512 -c 2 -i 4 -a 2 -x {0.0 2.0 -1 ------- null}
r -t 0.524551111111111 -s 0 -d 1 -p cbr -e 512 -c 2 -i 0 -a 2 -x {0.0 2.0 0 ------- null}
+ -t 0.524551111111111 -s 1 -d 2 -p cbr -e 512 -c 2 -i 0 -a 2 -x {0.0 2.0 0 ------- null}
- -t 0.524551111111111 -s 1 -d 2 -p cbr -e 512 -c 2 -i 0 -a 2 -x {0.0 2.0 0 ------- null}
h -t 0.524551111111111 -s 1 -d 2 -p cbr -e 512 -c 2 -i 0 -a 2 -x {0.0 2.0 -1 ------- null}
+ -t 0.525 -s 0 -d 1 -p cbr -e 512 -c 2 -i 5 -a 2 -x {0.0 2.0 5 ------- null}
- -t 0.525 -s 0 -d 1 -p cbr -e 512 -c 2 -i 5 -a 2 -x {0.0 2.0 5 ------- null}
h -t 0.525 -s 0 -d 1 -p cbr -e 512 -c 2 -i 5 -a 2 -x {0.0 2.0 -1 ------- null}
r -t 0.529551111111111 -s 0 -d 1 -p cbr -e 512 -c 2 -i 1 -a 2 -x {0.0 2.0 1 ------- null}
+ -t 0.529551111111111 -s 1 -d 2 -p cbr -e 512 -c 2 -i 1 -a 2 -x {0.0 2.0 1 ------- null}
- -t 0.529551111111111 -s 1 -d 2 -p cbr -e 512 -c 2 -i 1 -a 2 -x {0.0 2.0 1 ------- null}
h -t 0.529551111111111 -s 1 -d 2 -p cbr -e 512 -c 2 -i 1 -a 2 -x {0.0 2.0 -1 ------- null}
+ -t 0.53 -s 0 -d 1 -p cbr -e 512 -c 2 -i 6 -a 2 -x {0.0 2.0 6 ------- null}
- -t 0.53 -s 0 -d 1 -p cbr -e 512 -c 2 -i 6 -a 2 -x {0.0 2.0 6 ------- null}
h -t 0.53 -s 0 -d 1 -p cbr -e 512 -c 2 -i 6 -a 2 -x {0.0 2.0 -1 ------- null}
r -t 0.534551111111111 -s 0 -d 1 -p cbr -e 512 -c 2 -i 2 -a 2 -x {0.0 2.0 2 ------- null}
+ -t 0.534551111111111 -s 1 -d 2 -p cbr -e 512 -c 2 -i 2 -a 2 -x {0.0 2.0 2 ------- null}
- -t 0.534551111111111 -s 1 -d 2 -p cbr -e 512 -c 2 -i 2 -a 2 -x {0.0 2.0 2 ------- null}
h -t 0.534551111111111 -s 1 -d 2 -p cbr -e 512 -c 2 -i 2 -a 2 -x {0.0 2.0 -1 ------- null}
+ -t 0.535 -s 0 -d 1 -p cbr -e 512 -c 2 -i 7 -a 2 -x {0.0 2.0 7 ------- null}
- -t 0.535 -s 0 -d 1 -p cbr -e 512 -c 2 -i 7 -a 2 -x {0.0 2.0 7 ------- null}
h -t 0.535 -s 0 -d 1 -p cbr -e 512 -c 2 -i 7 -a 2 -x {0.0 2.0 -1 ------- null}
r -t 0.539551111111111 -s 0 -d 1 -p cbr -e 512 -c 2 -i 3 -a 2 -x {0.0 2.0 3 ------- null}
+ -t 0.539551111111111 -s 1 -d 2 -p cbr -e 512 -c 2 -i 3 -a 2 -x {0.0 2.0 3 ------- null}
- -t 0.539551111111111 -s 1 -d 2 -p cbr -e 512 -c 2 -i 3 -a 2 -x {0.0 2.0 3 ------- null}
h -t 0.539551111111111 -s 1 -d 2 -p cbr -e 512 -c 2 -i 3 -a 2 -x {0.0 2.0 -1 ------- null}
+ -t 0.54 -s 0 -d 1 -p cbr -e 512 -c 2 -i 8 -a 2 -x {0.0 2.0 8 ------- null}
- -t 0.54 -s 0 -d 1 -p cbr -e 512 -c 2 -i 8 -a 2 -x {0.0 2.0 8 ------- null}
h -t 0.54 -s 0 -d 1 -p cbr -e 512 -c 2 -i 8 -a 2 -x {0.0 2.0 -1 ------- null}
r -t 0.544551111111111 -s 0 -d 1 -p cbr -e 512 -c 2 -i 4 -a 2 -x {0.0 2.0 4 ------- null}
+ -t 0.544551111111111 -s 1 -d 2 -p cbr -e 512 -c 2 -i 4 -a 2 -x {0.0 2.0 4 ------- null}
- -t 0.544551111111111 -s 1 -d 2 -p cbr -e 512 -c 2 -i 4 -a 2 -x {0.0 2.0 4 ------- null}
h -t 0.544551111111111 -s 1 -d 2 -p cbr -e 512 -c 2 -i 4 -a 2 -x {0.0 2.0 -1 ------- null}
+ -t 0.545 -s 0 -d 1 -p cbr -e 512 -c 2 -i 9 -a 2 -x {0.0 2.0 9 ------- null}
- -t 0.545 -s 0 -d 1 -p cbr -e 512 -c 2 -i 9 -a 2 -x {0.0 2.0 9 ------- null}
h -t 0.545 -s 0 -d 1 -p cbr -e 512 -c 2 -i 9 -a 2 -x {0.0 2.0 -1 ------- null}
r -t 0.549102222222222 -s 1 -d 2 -p cbr -e 512 -c 2 -i 0 -a 2 -x {0.0 2.0 0 ------- null}
r -t 0.549551111111111 -s 0 -d 1 -p cbr -e 512 -c 2 -i 5 -a 2 -x {0.0 2.0 5 ------- null}
+ -t 0.549551111111111 -s 1 -d 2 -p cbr -e 512 -c 2 -i 5 -a 2 -x {0.0 2.0 5 ------- null}
- -t 0.549551111111111 -s 1 -d 2 -p cbr -e 512 -c 2 -i 5 -a 2 -x {0.0 2.0 5 ------- null}
h -t 0.549551111111111 -s 1 -d 2 -p cbr -e 512 -c 2 -i 5 -a 2 -x {0.0 2.0 -1 ------- null}
+ -t 0.55 -s 0 -d 1 -p cbr -e 512 -c 2 -i 10 -a 2 -x {0.0 2.0 10 ------- null}
- -t 0.55 -s 0 -d 1 -p cbr -e 512 -c 2 -i 10 -a 2 -x {0.0 2.0 10 ------- null}
h -t 0.55 -s 0 -d 1 -p cbr -e 512 -c 2 -i 10 -a 2 -x {0.0 2.0 -1 ------- null}
r -t 0.554102222222222 -s 1 -d 2 -p cbr -e 512 -c 2 -i 1 -a 2 -x {0.0 2.0 1 ------- null}
r -t 0.554551111111111 -s 0 -d 1 -p cbr -e 512 -c 2 -i 6 -a 2 -x {0.0 2.0 6 ------- null}
+ -t 0.554551111111111 -s 1 -d 2 -p cbr -e 512 -c 2 -i 6 -a 2 -x {0.0 2.0 6 ------- null}
- -t 0.554551111111111 -s 1 -d 2 -p cbr -e 512 -c 2 -i 6 -a 2 -x {0.0 2.0 6 ------- null}
h -t 0.554551111111111 -s 1 -d 2 -p cbr -e 512 -c 2 -i 6 -a 2 -x {0.0 2.0 -1 ------- null}
+ -t 0.555 -s 0 -d 1 -p cbr -e 512 -c 2 -i 11 -a 2 -x {0.0 2.0 11 ------- null}
- -t 0.555 -s 0 -d 1 -p cbr -e 512 -c 2 -i 11 -a 2 -x {0.0 2.0 11 ------- null}
h -t 0.555 -s 0 -d 1 -p cbr -e 512 -c 2 -i 11 -a 2 -x {0.0 2.0 -1 ------- null}
r -t 0.559102222222222 -s 1 -d 2 -p cbr -e 512 -c 2 -i 2 -a 2 -x {0.0 2.0 2 ------- null}
r -t 0.559551111111111 -s 0 -d 1 -p cbr -e 512 -c 2 -i 7 -a 2 -x {0.0 2.0 7 ------- null}
+ -t 0.559551111111111 -s 1 -d 2 -p cbr -e 512 -c 2 -i 7 -a 2 -x {0.0 2.0 7 ------- null}
- -t 0.559551111111111 -s 1 -d 2 -p cbr -e 512 -c 2 -i 7 -a 2 -x {0.0 2.0 7 ------- null}
h -t 0.559551111111111 -s 1 -d 2 -p cbr -e 512 -c 2 -i 7 -a 2 -x {0.0 2.0 -1 ------- null}
+ -t 0.56 -s 0 -d 1 -p cbr -e 512 -c 2 -i 12 -a 2 -x {0.0 2.0 12 ------- null}
- -t 0.56 -s 0 -d 1 -p cbr -e 512 -c 2 -i 12 -a 2 -x {0.0 2.0 12 ------- null}
h -t 0.56 -s 0 -d 1 -p cbr -e 512 -c 2 -i 12 -a 2 -x {0.0 2.0 -1 ------- null}
r -t 0.564102222222222 -s 1 -d 2 -p cbr -e 512 -c 2 -i 3 -a 2 -x {0.0 2.0 3 ------- null}
r -t 0.564551111111111 -s 0 -d 1 -p cbr -e 512 -c 2 -i 8 -a 2 -x {0.0 2.0 8 ------- null}
+ -t 0.564551111111111 -s 1 -d 2 -p cbr -e 512 -c 2 -i 8 -a 2 -x {0.0 2.0 8 ------- null}
- -t 0.564551111111111 -s 1 -d 2 -p cbr -e 512 -c 2 -i 8 -a 2 -x {0.0 2.0 8 ------- null}
h -t 0.564551111111111 -s 1 -d 2 -p cbr -e 512 -c 2 -i 8 -a 2 -x {0.0 2.0 -1 ------- null}
+ -t 0.565 -s 0 -d 1 -p cbr -e 512 -c 2 -i 13 -a 2 -x {0.0 2.0 13 ------- null}
- -t 0.565 -s 0 -d 1 -p cbr -e 512 -c 2 -i 13 -a 2 -x {0.0 2.0 13 ------- null}
h -t 0.565 -s 0 -d 1 -p cbr -e 512 -c 2 -i 13 -a 2 -x {0.0 2.0 -1 ------- null}
r -t 0.569102222222222 -s 1 -d 2 -p cbr -e 512 -c 2 -i 4 -a 2 -x {0.0 2.0 4 ------- null}
r -t 0.569551111111111 -s 0 -d 1 -p cbr -e 512 -c 2 -i 9 -a 2 -x {0.0 2.0 9 ------- null}
+ -t 0.569551111111111 -s 1 -d 2 -p cbr -e 512 -c 2 -i 9 -a 2 -x {0.0 2.0 9 ------- null}
- -t 0.569551111111111 -s 1 -d 2 -p cbr -e 512 -c 2 -i 9 -a 2 -x {0.0 2.0 9 ------- null}
h -t 0.569551111111111 -s 1 -d 2 -p cbr -e 512 -c 2 -i 9 -a 2 -x {0.0 2.0 -1 ------- null}
+ -t 0.57 -s 0 -d 1 -p cbr -e 512 -c 2 -i 14 -a 2 -x {0.0 2.0 14 ------- null}
- -t 0.57 -s 0 -d 1 -p cbr -e 512 -c 2 -i 14 -a 2 -x {0.0 2.0 14 ------- null}
h -t 0.57 -s 0 -d 1 -p cbr -e 512 -c 2 -i 14 -a 2 -x {0.0 2.0 -1 ------- null}
r -t 0.574102222222222 -s 1 -d 2 -p cbr -e 512 -c 2 -i 5 -a 2 -x {0.0 2.0 5 ------- null}
r -t 0.574551111111111 -s 0 -d 1 -p cbr -e 512 -c 2 -i 10 -a 2 -x {0.0 2.0 10 ------- null}
+ -t 0.574551111111111 -s 1 -d 2 -p cbr -e 512 -c 2 -i 10 -a 2 -x {0.0 2.0 10 ------- null}
- -t 0.574551111111111 -s 1 -d 2 -p cbr -e 512 -c 2 -i 10 -a 2 -x {0.0 2.0 10 ------- null}
h -t 0.574551111111111 -s 1 -d 2 -p cbr -e 512 -c 2 -i 10 -a 2 -x {0.0 2.0 -1 ------- null}
+ -t 0.575 -s 0 -d 1 -p cbr -e 512 -c 2 -i 15 -a 2 -x {0.0 2.0 15 ------- null}
- -t 0.575 -s 0 -d 1 -p cbr -e 512 -c 2 -i 15 -a 2 -x {0.0 2.0 15 ------- null}
h -t 0.575 -s 0 -d 1 -p cbr -e 512 -c 2 -i 15 -a 2 -x {0.0 2.0 -1 ------- null}
r -t 0.579102222222222 -s 1 -d 2 -p cbr -e 512 -c 2 -i 6 -a 2 -x {0.0 2.0 6 ------- null}
r -t 0.579551111111111 -s 0 -d 1 -p cbr -e 512 -c 2 -i 11 -a 2 -x {0.0 2.0 11 ------- null}
+ -t 0.579551111111111 -s 1 -d 2 -p cbr -e 512 -c 2 -i 11 -a 2 -x {0.0 2.0 11 ------- null}
- -t 0.579551111111111 -s 1 -d 2 -p cbr -e 512 -c 2 -i 11 -a 2 -x {0.0 2.0 11 ------- null}
h -t 0.579551111111111 -s 1 -d 2 -p cbr -e 512 -c 2 -i 11 -a 2 -x {0.0 2.0 -1 ------- null}
+ -t 0.58 -s 0 -d 1 -p cbr -e 512 -c 2 -i 16 -a 2 -x {0.0 2.0 16 ------- null}
- -t 0.58 -s 0 -d 1 -p cbr -e 512 -c 2 -i 16 -a 2 -x {0.0 2.0 16 ------- null}
h -t 0.58 -s 0 -d 1 -p cbr -e 512 -c 2 -i 16 -a 2 -x {0.0 2.0 -1 ------- null}
r -t 0.584102222222222 -s 1 -d 2 -p cbr -e 512 -c 2 -i 7 -a 2 -x {0.0 2.0 7 ------- null}
r -t 0.584551111111111 -s 0 -d 1 -p cbr -e 512 -c 2 -i 12 -a 2 -x {0.0 2.0 12 ------- null}
+ -t 0.584551111111111 -s 1 -d 2 -p cbr -e 512 -c 2 -i 12 -a 2 -x {0.0 2.0 12 ------- null}
- -t 0.584551111111111 -s 1 -d 2 -p cbr -e 512 -c 2 -i 12 -a 2 -x {0.0 2.0 12 ------- null}
h -t 0.584551111111111 -s 1 -d 2 -p cbr -e 512 -c 2 -i 12 -a 2 -x {0.0 2.0 -1 ------- null}
+ -t 0.585 -s 0 -d 1 -p cbr -e 512 -c 2 -i 17 -a 2 -x {0.0 2.0 17 ------- null}
- -t 0.585 -s 0 -d 1 -p cbr -e 512 -c 2 -i 17 -a 2 -x {0.0 2.0 17 ------- null}
h -t 0.585 -s 0 -d 1 -p cbr -e 512 -c 2 -i 17 -a 2 -x {0.0 2.0 -1 ------- null}
r -t 0.589102222222222 -s 1 -d 2 -p cbr -e 512 -c 2 -i 8 -a 2 -x {0.0 2.0 8 ------- null}
r -t 0.589551111111111 -s 0 -d 1 -p cbr -e 512 -c 2 -i 13 -a 2 -x {0.0 2.0 13 ------- null}
+ -t 0.589551111111111 -s 1 -d 2 -p cbr -e 512 -c 2 -i 13 -a 2 -x {0.0 2.0 13 ------- null}
- -t 0.589551111111111 -s 1 -d 2 -p cbr -e 512 -c 2 -i 13 -a 2 -x {0.0 2.0 13 ------- null}
h -t 0.589551111111111 -s 1 -d 2 -p cbr -e 512 -c 2 -i 13 -a 2 -x {0.0 2.0 -1 ------- null}
+ -t 0.59 -s 0 -d 1 -p cbr -e 512 -c 2 -i 18 -a 2 -x {0.0 2.0 18 ------- null}
- -t 0.59 -s 0 -d 1 -p cbr -e 512 -c 2 -i 18 -a 2 -x {0.0 2.0 18 ------- null}
h -t 0.59 -s 0 -d 1 -p cbr -e 512 -c 2 -i 18 -a 2 -x {0.0 2.0 -1 ------- null}
r -t 0.594102222222222 -s 1 -d 2 -p cbr -e 512 -c 2 -i 9 -a 2 -x {0.0 2.0 9 ------- null}
r -t 0.594551111111111 -s 0 -d 1 -p cbr -e 512 -c 2 -i 14 -a 2 -x {0.0 2.0 14 ------- null}
+ -t 0.594551111111111 -s 1 -d 2 -p cbr -e 512 -c 2 -i 14 -a 2 -x {0.0 2.0 14 ------- null}
- -t 0.594551111111111 -s 1 -d 2 -p cbr -e 512 -c 2 -i 14 -a 2 -x {0.0 2.0 14 ------- null}
h -t 0.594551111111111 -s 1 -d 2 -p cbr -e 512 -c 2 -i 14 -a 2 -x {0.0 2.0 -1 ------- null}
+ -t 0.595 -s 0 -d 1 -p cbr -e 512 -c 2 -i 19 -a 2 -x {0.0 2.0 19 ------- null}
- -t 0.595 -s 0 -d 1 -p cbr -e 512 -c 2 -i 19 -a 2 -x {0.0 2.0 19 ------- null}
h -t 0.595 -s 0 -d 1 -p cbr -e 512 -c 2 -i 19 -a 2 -x {0.0 2.0 -1 ------- null}
r -t 0.599102222222222 -s 1 -d 2 -p cbr -e 512 -c 2 -i 10 -a 2 -x {0.0 2.0 10 ------- null}
r -t 0.599551111111111 -s 0 -d 1 -p cbr -e 512 -c 2 -i 15 -a 2 -x {0.0 2.0 15 ------- null}
+ -t 0.599551111111111 -s 1 -d 2 -p cbr -e 512 -c 2 -i 15 -a 2 -x {0.0 2.0 15 ------- null}
- -t 0.599551111111111 -s 1 -d 2 -p cbr -e 512 -c 2 -i 15 -a 2 -x {0.0 2.0 15 ------- null}
h -t 0.599551111111111 -s 1 -d 2 -p cbr -e 512 -c 2 -i 15 -a 2 -x {0.0 2.0 -1 ------- null}
+ -t 0.6 -s 0 -d 1 -p cbr -e 512 -c 2 -i 20 -a 2 -x {0.0 2.0 20 ------- null}
- -t 0.6 -s 0 -d 1 -p cbr -e 512 -c 2 -i 20 -a 2 -x {0.0 2.0 20 ------- null}
h -t 0.6 -s 0 -d 1 -p cbr -e 512 -c 2 -i 20 -a 2 -x {0.0 2.0 -1 ------- null}
r -t 0.604102222222222 -s 1 -d 2 -p cbr -e 512 -c 2 -i 11 -a 2 -x {0.0 2.0 11 ------- null}
r -t 0.604551111111111 -s 0 -d 1 -p cbr -e 512 -c 2 -i 16 -a 2 -x {0.0 2.0 16 ------- null}
+ -t 0.604551111111111 -s 1 -d 2 -p cbr -e 512 -c 2 -i 16 -a 2 -x {0.0 2.0 16 ------- null}
- -t 0.604551111111111 -s 1 -d 2 -p cbr -e 512 -c 2 -i 16 -a 2 -x {0.0 2.0 16 ------- null}
h -t 0.604551111111111 -s 1 -d 2 -p cbr -e 512 -c 2 -i 16 -a 2 -x {0.0 2.0 -1 ------- null}
+ -t 0.605 -s 0 -d 1 -p cbr -e 512 -c 2 -i 21 -a 2 -x {0.0 2.0 21 ------- null}
- -t 0.605 -s 0 -d 1 -p cbr -e 512 -c 2 -i 21 -a 2 -x {0.0 2.0 21 ------- null}
h -t 0.605 -s 0 -d 1 -p cbr -e 512 -c 2 -i 21 -a 2 -x {0.0 2.0 -1 ------- null}
r -t 0.609102222222222 -s 1 -d 2 -p cbr -e 512 -c 2 -i 12 -a 2 -x {0.0 2.0 12 ------- null}
r -t 0.609551111111111 -s 0 -d 1 -p cbr -e 512 -c 2 -i 17 -a 2 -x {0.0 2.0 17 ------- null}
+ -t 0.609551111111111 -s 1 -d 2 -p cbr -e 512 -c 2 -i 17 -a 2 -x {0.0 2.0 17 ------- null}
- -t 0.609551111111111 -s 1 -d 2 -p cbr -e 512 -c 2 -i 17 -a 2 -x {0.0 2.0 17 ------- null}
h -t 0.609551111111111 -s 1 -d 2 -p cbr -e 512 -c 2 -i 17 -a 2 -x {0.0 2.0 -1 ------- null}
+ -t 0.61 -s 0 -d 1 -p cbr -e 512 -c 2 -i 22 -a 2 -x {0.0 2.0 22 ------- null}
- -t 0.61 -s 0 -d 1 -p cbr -e 512 -c 2 -i 22 -a 2 -x {0.0 2.0 22 ------- null}
h -t 0.61 -s 0 -d 1 -p cbr -e 512 -c 2 -i 22 -a 2 -x {0.0 2.0 -1 ------- null}
r -t 0.614102222222222 -s 1 -d 2 -p cbr -e 512 -c 2 -i 13 -a 2 -x {0.0 2.0 13 ------- null}
r -t 0.614551111111111 -s 0 -d 1 -p cbr -e 512 -c 2 -i 18 -a 2 -x {0.0 2.0 18 ------- null}
+ -t 0.614551111111111 -s 1 -d 2 -p cbr -e 512 -c 2 -i 18 -a 2 -x {0.0 2.0 18 ------- null}
- -t 0.614551111111111 -s 1 -d 2 -p cbr -e 512 -c 2 -i 18 -a 2 -x {0.0 2.0 18 ------- null}
h -t 0.614551111111111 -s 1 -d 2 -p cbr -e 512 -c 2 -i 18 -a 2 -x {0.0 2.0 -1 ------- null}
+ -t 0.615 -s 0 -d 1 -p cbr -e 512 -c 2 -i 23 -a 2 -x {0.0 2.0 23 ------- null}
- -t 0.615 -s 0 -d 1 -p cbr -e 512 -c 2 -i 23 -a 2 -x {0.0 2.0 23 ------- null}
h -t 0.615 -s 0 -d 1 -p cbr -e 512 -c 2 -i 23 -a 2 -x {0.0 2.0 -1 ------- null}
r -t 0.619102222222222 -s 1 -d 2 -p cbr -e 512 -c 2 -i 14 -a 2 -x {0.0 2.0 14 ------- null}
r -t 0.619551111111111 -s 0 -d 1 -p cbr -e 512 -c 2 -i 19 -a 2 -x {0.0 2.0 19 ------- null}
+ -t 0.619551111111111 -s 1 -d 2 -p cbr -e 512 -c 2 -i 19 -a 2 -x {0.0 2.0 19 ------- null}
- -t 0.619551111111111 -s 1 -d 2 -p cbr -e 512 -c 2 -i 19 -a 2 -x {0.0 2.0 19 ------- null}
h -t 0.619551111111111 -s 1 -d 2 -p cbr -e 512 -c 2 -i 19 -a 2 -x {0.0 2.0 -1 ------- null}
+ -t 0.62 -s 0 -d 1 -p cbr -e 512 -c 2 -i 24 -a 2 -x {0.0 2.0 24 ------- null}
- -t 0.62 -s 0 -d 1 -p cbr -e 512 -c 2 -i 24 -a 2 -x {0.0 2.0 24 ------- null}
h -t 0.62 -s 0 -d 1 -p cbr -e 512 -c 2 -i 24 -a 2 -x {0.0 2.0 -1 ------- null}
r -t 0.624102222222222 -s 1 -d 2 -p cbr -e 512 -c 2 -i 15 -a 2 -x {0.0 2.0 15 ------- null}
r -t 0.624551111111111 -s 0 -d 1 -p cbr -e 512 -c 2 -i 20 -a 2 -x {0.0 2.0 20 ------- null}
+ -t 0.624551111111111 -s 1 -d 2 -p cbr -e 512 -c 2 -i 20 -a 2 -x {0.0 2.0 20 ------- null}
- -t 0.624551111111111 -s 1 -d 2 -p cbr -e 512 -c 2 -i 20 -a 2 -x {0.0 2.0 20 ------- null}
h -t 0.624551111111111 -s 1 -d 2 -p cbr -e 512 -c 2 -i 20 -a 2 -x {0.0 2.0 -1 ------- null}
+ -t 0.625 -s 0 -d 1 -p cbr -e 512 -c 2 -i 25 -a 2 -x {0.0 2.0 25 ------- null}
- -t 0.625 -s 0 -d 1 -p cbr -e 512 -c 2 -i 25 -a 2 -x {0.0 2.0 25 ------- null}
h -t 0.625 -s 0 -d 1 -p cbr -e 512 -c 2 -i 25 -a 2 -x {0.0 2.0 -1 ------- null}
r -t 0.629102222222222 -s 1 -d 2 -p cbr -e 512 -c 2 -i 16 -a 2 -x {0.0 2.0 16 ------- null}
r -t 0.629551111111111 -s 0 -d 1 -p cbr -e 512 -c 2 -i 21 -a 2 -x {0.0 2.0 21 ------- null}
+ -t 0.629551111111111 -s 1 -d 2 -p cbr -e 512 -c 2 -i 21 -a 2 -x {0.0 2.0 21 ------- null}
- -t 0.629551111111111 -s 1 -d 2 -p cbr -e 512 -c 2 -i 21 -a 2 -x {0.0 2.0 21 ------- null}
h -t 0.629551111111111 -s 1 -d 2 -p cbr -e 512 -c 2 -i 21 -a 2 -x {0.0 2.0 -1 ------- null}
+ -t 0.63 -s 0 -d 1 -p cbr -e 512 -c 2 -i 26 -a 2 -x {0.0 2.0 26 ------- null}
- -t 0.63 -s 0 -d 1 -p cbr -e 512 -c 2 -i 26 -a 2 -x {0.0 2.0 26 ------- null}
h -t 0.63 -s 0 -d 1 -p cbr -e 512 -c 2 -i 26 -a 2 -x {0.0 2.0 -1 ------- null}
r -t 0.634102222222222 -s 1 -d 2 -p cbr -e 512 -c 2 -i 17 -a 2 -x {0.0 2.0 17 ------- null}
r -t 0.634551111111111 -s 0 -d 1 -p cbr -e 512 -c 2 -i 22 -a 2 -x {0.0 2.0 22 ------- null}
+ -t 0.634551111111111 -s 1 -d 2 -p cbr -e 512 -c 2 -i 22 -a 2 -x {0.0 2.0 22 ------- null}
- -t 0.634551111111111 -s 1 -d 2 -p cbr -e 512 -c 2 -i 22 -a 2 -x {0.0 2.0 22 ------- null}
h -t 0.634551111111111 -s 1 -d 2 -p cbr -e 512 -c 2 -i 22 -a 2 -x {0.0 2.0 -1 ------- null}
+ -t 0.635 -s 0 -d 1 -p cbr -e 512 -c 2 -i 27 -a 2 -x {0.0 2.0 27 ------- null}
- -t 0.635 -s 0 -d 1 -p cbr -e 512 -c 2 -i 27 -a 2 -x {0.0 2.0 27 ------- null}
h -t 0.635 -s 0 -d 1 -p cbr -e 512 -c 2 -i 27 -a 2 -x {0.0 2.0 -1 ------- null}
r -t 0.639102222222222 -s 1 -d 2 -p cbr -e 512 -c 2 -i 18 -a 2 -x {0.0 2.0 18 ------- null}
r -t 0.639551111111111 -s 0 -d 1 -p cbr -e 512 -c 2 -i 23 -a 2 -x {0.0 2.0 23 ------- null}
+ -t 0.639551111111111 -s 1 -d 2 -p cbr -e 512 -c 2 -i 23 -a 2 -x {0.0 2.0 23 ------- null}
- -t 0.639551111111111 -s 1 -d 2 -p cbr -e 512 -c 2 -i 23 -a 2 -x {0.0 2.0 23 ------- null}
h -t 0.639551111111111 -s 1 -d 2 -p cbr -e 512 -c 2 -i 23 -a 2 -x {0.0 2.0 -1 ------- null}
+ -t 0.64 -s 0 -d 1 -p cbr -e 512 -c 2 -i 28 -a 2 -x {0.0 2.0 28 ------- null}
- -t 0.64 -s 0 -d 1 -p cbr -e 512 -c 2 -i 28 -a 2 -x {0.0 2.0 28 ------- null}
h -t 0.64 -s 0 -d 1 -p cbr -e 512 -c 2 -i 28 -a 2 -x {0.0 2.0 -1 ------- null}
r -t 0.644102222222222 -s 1 -d 2 -p cbr -e 512 -c 2 -i 19 -a 2 -x {0.0 2.0 19 ------- null}
r -t 0.644551111111111 -s 0 -d 1 -p cbr -e 512 -c 2 -i 24 -a 2 -x {0.0 2.0 24 ------- null}
+ -t 0.644551111111111 -s 1 -d 2 -p cbr -e 512 -c 2 -i 24 -a 2 -x {0.0 2.0 24 ------- null}
- -t 0.644551111111111 -s 1 -d 2 -p cbr -e 512 -c 2 -i 24 -a 2 -x {0.0 2.0 24 ------- null}
h -t 0.644551111111111 -s 1 -d 2 -p cbr -e 512 -c 2 -i 24 -a 2 -x {0.0 2.0 -1 ------- null}
+ -t 0.645 -s 0 -d 1 -p cbr -e 512 -c 2 -i 29 -a 2 -x {0.0 2.0 29 ------- null}
- -t 0.645 -s 0 -d 1 -p cbr -e 512 -c 2 -i 29 -a 2 -x {0.0 2.0 29 ------- null}
h -t 0.645 -s 0 -d 1 -p cbr -e 512 -c 2 -i 29 -a 2 -x {0.0 2.0 -1 ------- null}
r -t 0.649102222222222 -s 1 -d 2 -p cbr -e 512 -c 2 -i 20 -a 2 -x {0.0 2.0 20 ------- null}
r -t 0.649551111111111 -s 0 -d 1 -p cbr -e 512 -c 2 -i 25 -a 2 -x {0.0 2.0 25 ------- null}
+ -t 0.649551111111111 -s 1 -d 2 -p cbr -e 512 -c 2 -i 25 -a 2 -x {0.0 2.0 25 ------- null}
- -t 0.649551111111111 -s 1 -d 2 -p cbr -e 512 -c 2 -i 25 -a 2 -x {0.0 2.0 25 ------- null}
h -t 0.649551111111111 -s 1 -d 2 -p cbr -e 512 -c 2 -i 25 -a 2 -x {0.0 2.0 -1 ------- null}
+ -t 0.65 -s 0 -d 1 -p cbr -e 512 -c 2 -i 30 -a 2 -x {0.0 2.0 30 ------- null}
- -t 0.65 -s 0 -d 1 -p cbr -e 512 -c 2 -i 30 -a 2 -x {0.0 2.0 30 ------- null}
h -t 0.65 -s 0 -d 1 -p cbr -e 512 -c 2 -i 30 -a 2 -x {0.0 2.0 -1 ------- null}
r -t 0.654102222222222 -s 1 -d 2 -p cbr -e 512 -c 2 -i 21 -a 2 -x {0.0 2.0 21 ------- null}
r -t 0.654551111111111 -s 0 -d 1 -p cbr -e 512 -c 2 -i 26 -a 2 -x {0.0 2.0 26 ------- null}
+ -t 0.654551111111111 -s 1 -d 2 -p cbr -e 512 -c 2 -i 26 -a 2 -x {0.0 2.0 26 ------- null}
- -t 0.654551111111111 -s 1 -d 2 -p cbr -e 512 -c 2 -i 26 -a 2 -x {0.0 2.0 26 ------- null}
h -t 0.654551111111111 -s 1 -d 2 -p cbr -e 512 -c 2 -i 26 -a 2 -x {0.0 2.0 -1 ------- null}
+ -t 0.655 -s 0 -d 1 -p cbr -e 512 -c 2 -i 31 -a 2 -x {0.0 2.0 31 ------- null}
- -t 0.655 -s 0 -d 1 -p cbr -e 512 -c 2 -i 31 -a 2 -x {0.0 2.0 31 ------- null}
h -t 0.655 -s 0 -d 1 -p cbr -e 512 -c 2 -i 31 -a 2 -x {0.0 2.0 -1 ------- null}
r -t 0.659102222222222 -s 1 -d 2 -p cbr -e 512 -c 2 -i 22 -a 2 -x {0.0 2.0 22 ------- null}
r -t 0.659551111111111 -s 0 -d 1 -p cbr -e 512 -c 2 -i 27 -a 2 -x {0.0 2.0 27 ------- null}
+ -t 0.659551111111111 -s 1 -d 2 -p cbr -e 512 -c 2 -i 27 -a 2 -x {0.0 2.0 27 ------- null}
- -t 0.659551111111111 -s 1 -d 2 -p cbr -e 512 -c 2 -i 27 -a 2 -x {0.0 2.0 27 ------- null}
h -t 0.659551111111111 -s 1 -d 2 -p cbr -e 512 -c 2 -i 27 -a 2 -x {0.0 2.0 -1 ------- null}
+ -t 0.66 -s 0 -d 1 -p cbr -e 512 -c 2 -i 32 -a 2 -x {0.0 2.0 32 ------- null}
- -t 0.66 -s 0 -d 1 -p cbr -e 512 -c 2 -i 32 -a 2 -x {0.0 2.0 32 ------- null}
h -t 0.66 -s 0 -d 1 -p cbr -e 512 -c 2 -i 32 -a 2 -x {0.0 2.0 -1 ------- null}
r -t 0.664102222222222 -s 1 -d 2 -p cbr -e 512 -c 2 -i 23 -a 2 -x {0.0 2.0 23 ------- null}
r -t 0.664551111111111 -s 0 -d 1 -p cbr -e 512 -c 2 -i 28 -a 2 -x {0.0 2.0 28 ------- null}
+ -t 0.664551111111111 -s 1 -d 2 -p cbr -e 512 -c 2 -i 28 -a 2 -x {0.0 2.0 28 ------- null}
- -t 0.664551111111111 -s 1 -d 2 -p cbr -e 512 -c 2 -i 28 -a 2 -x {0.0 2.0 28 ------- null}
h -t 0.664551111111111 -s 1 -d 2 -p cbr -e 512 -c 2 -i 28 -a 2 -x {0.0 2.0 -1 ------- null}
+ -t 0.665 -s 0 -d 1 -p cbr -e 512 -c 2 -i 33 -a 2 -x {0.0 2.0 33 ------- null}
- -t 0.665 -s 0 -d 1 -p cbr -e 512 -c 2 -i 33 -a 2 -x {0.0 2.0 33 ------- null}
h -t 0.665 -s 0 -d 1 -p cbr -e 512 -c 2 -i 33 -a 2 -x {0.0 2.0 -1 ------- null}
r -t 0.669102222222222 -s 1 -d 2 -p cbr -e 512 -c 2 -i 24 -a 2 -x {0.0 2.0 24 ------- null}
r -t 0.669551111111111 -s 0 -d 1 -p cbr -e 512 -c 2 -i 29 -a 2 -x {0.0 2.0 29 ------- null}
+ -t 0.669551111111111 -s 1 -d 2 -p cbr -e 512 -c 2 -i 29 -a 2 -x {0.0 2.0 29 ------- null}
- -t 0.669551111111111 -s 1 -d 2 -p cbr -e 512 -c 2 -i 29 -a 2 -x {0.0 2.0 29 ------- null}
h -t 0.669551111111111 -s 1 -d 2 -p cbr -e 512 -c 2 -i 29 -a 2 -x {0.0 2.0 -1 ------- null}
+ -t 0.67 -s 0 -d 1 -p cbr -e 512 -c 2 -i 34 -a 2 -x {0.0 2.0 34 ------- null}
- -t 0.67 -s 0 -d 1 -p cbr -e 512 -c 2 -i 34 -a 2 -x {0.0 2.0 34 ------- null}
h -t 0.67 -s 0 -d 1 -p cbr -e 512 -c 2 -i 34 -a 2 -x {0.0 2.0 -1 ------- null}
r -t 0.674102222222222 -s 1 -d 2 -p cbr -e 512 -c 2 -i 25 -a 2 -x {0.0 2.0 25 ------- null}
r -t 0.674551111111111 -s 0 -d 1 -p cbr -e 512 -c 2 -i 30 -a 2 -x {0.0 2.0 30 ------- null}
+ -t 0.674551111111111 -s 1 -d 2 -p cbr -e 512 -c 2 -i 30 -a 2 -x {0.0 2.0 30 ------- null}
- -t 0.674551111111111 -s 1 -d 2 -p cbr -e 512 -c 2 -i 30 -a 2 -x {0.0 2.0 30 ------- null}
h -t 0.674551111111111 -s 1 -d 2 -p cbr -e 512 -c 2 -i 30 -a 2 -x {0.0 2.0 -1 ------- null}
+ -t 0.675 -s 0 -d 1 -p cbr -e 512 -c 2 -i 35 -a 2 -x {0.0 2.0 35 ------- null}
- -t 0.675 -s 0 -d 1 -p cbr -e 512 -c 2 -i 35 -a 2 -x {0.0 2.0 35 ------- null}
h -t 0.675 -s 0 -d 1 -p cbr -e 512 -c 2 -i 35 -a 2 -x {0.0 2.0 -1 ------- null}
r -t 0.679102222222222 -s 1 -d 2 -p cbr -e 512 -c 2 -i 26 -a 2 -x {0.0 2.0 26 ------- null}
r -t 0.679551111111111 -s 0 -d 1 -p cbr -e 512 -c 2 -i 31 -a 2 -x {0.0 2.0 31 ------- null}
+ -t 0.679551111111111 -s 1 -d 2 -p cbr -e 512 -c 2 -i 31 -a 2 -x {0.0 2.0 31 ------- null}
- -t 0.679551111111111 -s 1 -d 2 -p cbr -e 512 -c 2 -i 31 -a 2 -x {0.0 2.0 31 ------- null}
h -t 0.679551111111111 -s 1 -d 2 -p cbr -e 512 -c 2 -i 31 -a 2 -x {0.0 2.0 -1 ------- null}
+ -t 0.68 -s 0 -d 1 -p cbr -e 512 -c 2 -i 36 -a 2 -x {0.0 2.0 36 ------- null}
- -t 0.68 -s 0 -d 1 -p cbr -e 512 -c 2 -i 36 -a 2 -x {0.0 2.0 36 ------- null}
h -t 0.68 -s 0 -d 1 -p cbr -e 512 -c 2 -i 36 -a 2 -x {0.0 2.0 -1 ------- null}
r -t 0.684102222222222 -s 1 -d 2 -p cbr -e 512 -c 2 -i 27 -a 2 -x {0.0 2.0 27 ------- null}
r -t 0.684551111111111 -s 0 -d 1 -p cbr -e 512 -c 2 -i 32 -a 2 -x {0.0 2.0 32 ------- null}
+ -t 0.684551111111111 -s 1 -d 2 -p cbr -e 512 -c 2 -i 32 -a 2 -x {0.0 2.0 32 ------- null}
- -t 0.684551111111111 -s 1 -d 2 -p cbr -e 512 -c 2 -i 32 -a 2 -x {0.0 2.0 32 ------- null}
h -t 0.684551111111111 -s 1 -d 2 -p cbr -e 512 -c 2 -i 32 -a 2 -x {0.0 2.0 -1 ------- null}
+ -t 0.685 -s 0 -d 1 -p cbr -e 512 -c 2 -i 37 -a 2 -x {0.0 2.0 37 ------- null}
- -t 0.685 -s 0 -d 1 -p cbr -e 512 -c 2 -i 37 -a 2 -x {0.0 2.0 37 ------- null}
h -t 0.685 -s 0 -d 1 -p cbr -e 512 -c 2 -i 37 -a 2 -x {0.0 2.0 -1 ------- null}
r -t 0.689102222222222 -s 1 -d 2 -p cbr -e 512 -c 2 -i 28 -a 2 -x {0.0 2.0 28 ------- null}
r -t 0.689551111111111 -s 0 -d 1 -p cbr -e 512 -c 2 -i 33 -a 2 -x {0.0 2.0 33 ------- null}
+ -t 0.689551111111111 -s 1 -d 2 -p cbr -e 512 -c 2 -i 33 -a 2 -x {0.0 2.0 33 ------- null}
- -t 0.689551111111111 -s 1 -d 2 -p cbr -e 512 -c 2 -i 33 -a 2 -x {0.0 2.0 33 ------- null}
h -t 0.689551111111111 -s 1 -d 2 -p cbr -e 512 -c 2 -i 33 -a 2 -x {0.0 2.0 -1 ------- null}
+ -t 0.69 -s 0 -d 1 -p cbr -e 512 -c 2 -i 38 -a 2 -x {0.0 2.0 38 ------- null}
- -t 0.69 -s 0 -d 1 -p cbr -e 512 -c 2 -i 38 -a 2 -x {0.0 2.0 38 ------- null}
h -t 0.69 -s 0 -d 1 -p cbr -e 512 -c 2 -i 38 -a 2 -x {0.0 2.0 -1 ------- null}
r -t 0.694102222222222 -s 1 -d 2 -p cbr -e 512 -c 2 -i 29 -a 2 -x {0.0 2.0 29 ------- null}
r -t 0.694551111111111 -s 0 -d 1 -p cbr -e 512 -c 2 -i 34 -a 2 -x {0.0 2.0 34 ------- null}
+ -t 0.694551111111111 -s 1 -d 2 -p cbr -e 512 -c 2 -i 34 -a 2 -x {0.0 2.0 34 ------- null}
- -t 0.694551111111111 -s 1 -d 2 -p cbr -e 512 -c 2 -i 34 -a 2 -x {0.0 2.0 34 ------- null}
h -t 0.694551111111111 -s 1 -d 2 -p cbr -e 512 -c 2 -i 34 -a 2 -x {0.0 2.0 -1 ------- null}
+ -t 0.695 -s 0 -d 1 -p cbr -e 512 -c 2 -i 39 -a 2 -x {0.0 2.0 39 ------- null}
- -t 0.695 -s 0 -d 1 -p cbr -e 512 -c 2 -i 39 -a 2 -x {0.0 2.0 39 ------- null}
h -t 0.695 -s 0 -d 1 -p cbr -e 512 -c 2 -i 39 -a 2 -x {0.0 2.0 -1 ------- null}
r -t 0.699102222222222 -s 1 -d 2 -p cbr -e 512 -c 2 -i 30 -a 2 -x {0.0 2.0 30 ------- null}
r -t 0.699551111111111 -s 0 -d 1 -p cbr -e 512 -c 2 -i 35 -a 2 -x {0.0 2.0 35 ------- null}
+ -t 0.699551111111111 -s 1 -d 2 -p cbr -e 512 -c 2 -i 35 -a 2 -x {0.0 2.0 35 ------- null}
- -t 0.699551111111111 -s 1 -d 2 -p cbr -e 512 -c 2 -i 35 -a 2 -x {0.0 2.0 35 ------- null}
h -t 0.699551111111111 -s 1 -d 2 -p cbr -e 512 -c 2 -i 35 -a 2 -x {0.0 2.0 -1 ------- null}
+ -t 0.7 -s 0 -d 1 -p cbr -e 512 -c 2 -i 40 -a 2 -x {0.0 2.0 40 ------- null}
- -t 0.7 -s 0 -d 1 -p cbr -e 512 -c 2 -i 40 -a 2 -x {0.0 2.0 40 ------- null}
h -t 0.7 -s 0 -d 1 -p cbr -e 512 -c 2 -i 40 -a 2 -x {0.0 2.0 -1 ------- null}
r -t 0.704102222222222 -s 1 -d 2 -p cbr -e 512 -c 2 -i 31 -a 2 -x {0.0 2.0 31 ------- null}
r -t 0.704551111111111 -s 0 -d 1 -p cbr -e 512 -c 2 -i 36 -a 2 -x {0.0 2.0 36 ------- null}
+ -t 0.704551111111111 -s 1 -d 2 -p cbr -e 512 -c 2 -i 36 -a 2 -x {0.0 2.0 36 ------- null}
- -t 0.704551111111111 -s 1 -d 2 -p cbr -e 512 -c 2 -i 36 -a 2 -x {0.0 2.0 36 ------- null}
h -t 0.704551111111111 -s 1 -d 2 -p cbr -e 512 -c 2 -i 36 -a 2 -x {0.0 2.0 -1 ------- null}
+ -t 0.705 -s 0 -d 1 -p cbr -e 512 -c 2 -i 41 -a 2 -x {0.0 2.0 41 ------- null}
- -t 0.705 -s 0 -d 1 -p cbr -e 512 -c 2 -i 41 -a 2 -x {0.0 2.0 41 ------- null}
h -t 0.705 -s 0 -d 1 -p cbr -e 512 -c 2 -i 41 -a 2 -x {0.0 2.0 -1 ------- null}
r -t 0.709102222222222 -s 1 -d 2 -p cbr -e 512 -c 2 -i 32 -a 2 -x {0.0 2.0 32 ------- null}
r -t 0.709551111111111 -s 0 -d 1 -p cbr -e 512 -c 2 -i 37 -a 2 -x {0.0 2.0 37 ------- null}
+ -t 0.709551111111111 -s 1 -d 2 -p cbr -e 512 -c 2 -i 37 -a 2 -x {0.0 2.0 37 ------- null}
- -t 0.709551111111111 -s 1 -d 2 -p cbr -e 512 -c 2 -i 37 -a 2 -x {0.0 2.0 37 ------- null}
h -t 0.709551111111111 -s 1 -d 2 -p cbr -e 512 -c 2 -i 37 -a 2 -x {0.0 2.0 -1 ------- null}
+ -t 0.71 -s 0 -d 1 -p cbr -e 512 -c 2 -i 42 -a 2 -x {0.0 2.0 42 ------- null}
- -t 0.71 -s 0 -d 1 -p cbr -e 512 -c 2 -i 42 -a 2 -x {0.0 2.0 42 ------- null}
h -t 0.71 -s 0 -d 1 -p cbr -e 512 -c 2 -i 42 -a 2 -x {0.0 2.0 -1 ------- null}
r -t 0.714102222222222 -s 1 -d 2 -p cbr -e 512 -c 2 -i 33 -a 2 -x {0.0 2.0 33 ------- null}
r -t 0.714551111111111 -s 0 -d 1 -p cbr -e 512 -c 2 -i 38 -a 2 -x {0.0 2.0 38 ------- null}
+ -t 0.714551111111111 -s 1 -d 2 -p cbr -e 512 -c 2 -i 38 -a 2 -x {0.0 2.0 38 ------- null}
- -t 0.714551111111111 -s 1 -d 2 -p cbr -e 512 -c 2 -i 38 -a 2 -x {0.0 2.0 38 ------- null}
h -t 0.714551111111111 -s 1 -d 2 -p cbr -e 512 -c 2 -i 38 -a 2 -x {0.0 2.0 -1 ------- null}
+ -t 0.715 -s 0 -d 1 -p cbr -e 512 -c 2 -i 43 -a 2 -x {0.0 2.0 43 ------- null}
- -t 0.715 -s 0 -d 1 -p cbr -e 512 -c 2 -i 43 -a 2 -x {0.0 2.0 43 ------- null}
h -t 0.715 -s 0 -d 1 -p cbr -e 512 -c 2 -i 43 -a 2 -x {0.0 2.0 -1 ------- null}
r -t 0.719102222222222 -s 1 -d 2 -p cbr -e 512 -c 2 -i 34 -a 2 -x {0.0 2.0 34 ------- null}
r -t 0.719551111111111 -s 0 -d 1 -p cbr -e 512 -c 2 -i 39 -a 2 -x {0.0 2.0 39 ------- null}
+ -t 0.719551111111111 -s 1 -d 2 -p cbr -e 512 -c 2 -i 39 -a 2 -x {0.0 2.0 39 ------- null}
- -t 0.719551111111111 -s 1 -d 2 -p cbr -e 512 -c 2 -i 39 -a 2 -x {0.0 2.0 39 ------- null}
h -t 0.719551111111111 -s 1 -d 2 -p cbr -e 512 -c 2 -i 39 -a 2 -x {0.0 2.0 -1 ------- null}
+ -t 0.72 -s 0 -d 1 -p cbr -e 512 -c 2 -i 44 -a 2 -x {0.0 2.0 44 ------- null}
- -t 0.72 -s 0 -d 1 -p cbr -e 512 -c 2 -i 44 -a 2 -x {0.0 2.0 44 ------- null}
h -t 0.72 -s 0 -d 1 -p cbr -e 512 -c 2 -i 44 -a 2 -x {0.0 2.0 -1 ------- null}
r -t 0.724102222222222 -s 1 -d 2 -p cbr -e 512 -c 2 -i 35 -a 2 -x {0.0 2.0 35 ------- null}
r -t 0.724551111111111 -s 0 -d 1 -p cbr -e 512 -c 2 -i 40 -a 2 -x {0.0 2.0 40 ------- null}
+ -t 0.724551111111111 -s 1 -d 2 -p cbr -e 512 -c 2 -i 40 -a 2 -x {0.0 2.0 40 ------- null}
- -t 0.724551111111111 -s 1 -d 2 -p cbr -e 512 -c 2 -i 40 -a 2 -x {0.0 2.0 40 ------- null}
h -t 0.724551111111111 -s 1 -d 2 -p cbr -e 512 -c 2 -i 40 -a 2 -x {0.0 2.0 -1 ------- null}
+ -t 0.725 -s 0 -d 1 -p cbr -e 512 -c 2 -i 45 -a 2 -x {0.0 2.0 45 ------- null}
- -t 0.725 -s 0 -d 1 -p cbr -e 512 -c 2 -i 45 -a 2 -x {0.0 2.0 45 ------- null}
h -t 0.725 -s 0 -d 1 -p cbr -e 512 -c 2 -i 45 -a 2 -x {0.0 2.0 -1 ------- null}
r -t 0.729102222222222 -s 1 -d 2 -p cbr -e 512 -c 2 -i 36 -a 2 -x {0.0 2.0 36 ------- null}
r -t 0.729551111111111 -s 0 -d 1 -p cbr -e 512 -c 2 -i 41 -a 2 -x {0.0 2.0 41 ------- null}
+ -t 0.729551111111111 -s 1 -d 2 -p cbr -e 512 -c 2 -i 41 -a 2 -x {0.0 2.0 41 ------- null}
- -t 0.729551111111111 -s 1 -d 2 -p cbr -e 512 -c 2 -i 41 -a 2 -x {0.0 2.0 41 ------- null}