+ 0.5 0 1 cbr 512 ------- 2 0.0 2.0 0 0
- 0.5 0 1 cbr 512 ------- 2 0.0 2.0 0 0
+ 0.505 0 1 cbr 512 ------- 2 0.0 2.0 1 1
- 0.505 0 1 cbr 512 ------- 2 0.0 2.0 1 1
+ 0.51 0 1 cbr 512 ------- 2 0.0 2.0 2 2
- 0.51 0 1 cbr 512 ------- 2 0.0 2.0 2 2
+ 0.515 0 1 cbr 512 ------- 2 0.0 2.0 3 3
- 0.515 0 1 cbr 512 ------- 2 0.0 2.0 3 3
+ 0.52 0 1 cbr 512 ------- 2 0.0 2.0 4 4
- 0.52 0 1 cbr 512 ------- 2 0.0 2.0 4 4
r 0.524551 0 1 cbr 512 ------- 2 0.0 2.0 0 0
+ 0.524551 1 2 cbr 512 ------- 2 0.0 2.0 0 0
- 0.524551 1 2 cbr 512 ------- 2 0.0 2.0 0 0
+ 0.525 0 1 cbr 512 ------- 2 0.0 2.0 5 5
- 0.525 0 1 cbr 512 ------- 2 0.0 2.0 5 5
r 0.529551 0 1 cbr 512 ------- 2 0.0 2.0 1 1
+ 0.529551 1 2 cbr 512 ------- 2 0.0 2.0 1 1
- 0.529551 1 2 cbr 512 ------- 2 0.0 2.0 1 1
+ 0.53 0 1 cbr 512 ------- 2 0.0 2.0 6 6
- 0.53 0 1 cbr 512 ------- 2 0.0 2.0 6 6
r 0.534551 0 1 cbr 512 ------- 2 0.0 2.0 2 2
+ 0.534551 1 2 cbr 512 ------- 2 0.0 2.0 2 2
- 0.534551 1 2 cbr 512 ------- 2 0.0 2.0 2 2
+ 0.535 0 1 cbr 512 ------- 2 0.0 2.0 7 7
- 0.535 0 1 cbr 512 ------- 2 0.0 2.0 7 7
r 0.539551 0 1 cbr 512 ------- 2 0.0 2.0 3 3
+ 0.539551 1 2 cbr 512 ------- 2 0.0 2.0 3 3
- 0.539551 1 2 cbr 512 ------- 2 0.0 2.0 3 3
+ 0.54 0 1 cbr 512 ------- 2 0.0 2.0 8 8
- 0.54 0 1 cbr 512 ------- 2 0.0 2.0 8 8
r 0.544551 0 1 cbr 512 ------- 2 0.0 2.0 4 4
+ 0.544551 1 2 cbr 512 ------- 2 0.0 2.0 4 4
- 0.544551 1 2 cbr 512 ------- 2 0.0 2.0 4 4
+ 0.545 0 1 cbr 512 ------- 2 0.0 2.0 9 9
- 0.545 0 1 cbr 512 ------- 2 0.0 2.0 9 9
r 0.549102 1 2 cbr 512 ------- 2 0.0 2.0 0 0
r 0.549551 0 1 cbr 512 ------- 2 0.0 2.0 5 5
+ 0.549551 1 2 cbr 512 ------- 2 0.0 2.0 5 5
- 0.549551 1 2 cbr 512 ------- 2 0.0 2.0 5 5
+ 0.55 0 1 cbr 512 ------- 2 0.0 2.0 10 10
- 0.55 0 1 cbr 512 ------- 2 0.0 2.0 10 10
r 0.554102 1 2 cbr 512 ------- 2 0.0 2.0 1 1
r 0.554551 0 1 cbr 512 ------- 2 0.0 2.0 6 6
+ 0.554551 1 2 cbr 512 ------- 2 0.0 2.0 6 6
- 0.554551 1 2 cbr 512 ------- 2 0.0 2.0 6 6
+ 0.555 0 1 cbr 512 ------- 2 0.0 2.0 11 11
- 0.555 0 1 cbr 512 ------- 2 0.0 2.0 11 11
r 0.559102 1 2 cbr 512 ------- 2 0.0 2.0 2 2
r 0.559551 0 1 cbr 512 ------- 2 0.0 2.0 7 7
+ 0.559551 1 2 cbr 512 ------- 2 0.0 2.0 7 7
- 0.559551 1 2 cbr 512 ------- 2 0.0 2.0 7 7
+ 0.56 0 1 cbr 512 ------- 2 0.0 2.0 12 12
- 0.56 0 1 cbr 512 ------- 2 0.0 2.0 12 12
r 0.564102 1 2 cbr 512 ------- 2 0.0 2.0 3 3
r 0.564551 0 1 cbr 512 ------- 2 0.0 2.0 8 8
+ 0.564551 1 2 cbr 512 ------- 2 0.0 2.0 8 8
- 0.564551 1 2 cbr 512 ------- 2 0.0 2.0 8 8
+ 0.565 0 1 cbr 512 ------- 2 0.0 2.0 13 13
- 0.565 0 1 cbr 512 ------- 2 0.0 2.0 13 13
r 0.569102 1 2 cbr 512 ------- 2 0.0 2.0 4 4
r 0.569551 0 1 cbr 512 ------- 2 0.0 2.0 9 9
+ 0.569551 1 2 cbr 512 ------- 2 0.0 2.0 9 9
- 0.569551 1 2 cbr 512 ------- 2 0.0 2.0 9 9
+ 0.57 0 1 cbr 512 ------- 2 0.0 2.0 14 14
- 0.57 0 1 cbr 512 ------- 2 0.0 2.0 14 14
r 0.574102 1 2 cbr 512 ------- 2 0.0 2.0 5 5
r 0.574551 0 1 cbr 512 ------- 2 0.0 2.0 10 10
+ 0.574551 1 2 cbr 512 ------- 2 0.0 2.0 10 10
- 0.574551 1 2 cbr 512 ------- 2 0.0 2.0 10 10
+ 0.575 0 1 cbr 512 ------- 2 0.0 2.0 15 15
- 0.575 0 1 cbr 512 ------- 2 0.0 2.0 15 15
r 0.579102 1 2 cbr 512 ------- 2 0.0 2.0 6 6
r 0.579551 0 1 cbr 512 ------- 2 0.0 2.0 11 11
+ 0.579551 1 2 cbr 512 ------- 2 0.0 2.0 11 11
- 0.579551 1 2 cbr 512 ------- 2 0.0 2.0 11 11
+ 0.58 0 1 cbr 512 ------- 2 0.0 2.0 16 16
- 0.58 0 1 cbr 512 ------- 2 0.0 2.0 16 16
r 0.584102 1 2 cbr 512 ------- 2 0.0 2.0 7 7
r 0.584551 0 1 cbr 512 ------- 2 0.0 2.0 12 12
+ 0.584551 1 2 cbr 512 ------- 2 0.0 2.0 12 12
- 0.584551 1 2 cbr 512 ------- 2 0.0 2.0 12 12
+ 0.585 0 1 cbr 512 ------- 2 0.0 2.0 17 17
- 0.585 0 1 cbr 512 ------- 2 0.0 2.0 17 17
r 0.589102 1 2 cbr 512 ------- 2 0.0 2.0 8 8
r 0.589551 0 1 cbr 512 ------- 2 0.0 2.0 13 13
+ 0.589551 1 2 cbr 512 ------- 2 0.0 2.0 13 13
- 0.589551 1 2 cbr 512 ------- 2 0.0 2.0 13 13
+ 0.59 0 1 cbr 512 ------- 2 0.0 2.0 18 18
- 0.59 0 1 cbr 512 ------- 2 0.0 2.0 18 18
r 0.594102 1 2 cbr 512 ------- 2 0.0 2.0 9 9
r 0.594551 0 1 cbr 512 ------- 2 0.0 2.0 14 14
+ 0.594551 1 2 cbr 512 ------- 2 0.0 2.0 14 14
- 0.594551 1 2 cbr 512 ------- 2 0.0 2.0 14 14
+ 0.595 0 1 cbr 512 ------- 2 0.0 2.0 19 19
- 0.595 0 1 cbr 512 ------- 2 0.0 2.0 19 19
r 0.599102 1 2 cbr 512 ------- 2 0.0 2.0 10 10
r 0.599551 0 1 cbr 512 ------- 2 0.0 2.0 15 15
+ 0.599551 1 2 cbr 512 ------- 2 0.0 2.0 15 15
- 0.599551 1 2 cbr 512 ------- 2 0.0 2.0 15 15
+ 0.6 0 1 cbr 512 ------- 2 0.0 2.0 20 20
- 0.6 0 1 cbr 512 ------- 2 0.0 2.0 20 20
r 0.604102 1 2 cbr 512 ------- 2 0.0 2.0 11 11
r 0.604551 0 1 cbr 512 ------- 2 0.0 2.0 16 16
+ 0.604551 1 2 cbr 512 ------- 2 0.0 2.0 16 16
- 0.604551 1 2 cbr 512 ------- 2 0.0 2.0 16 16
+ 0.605 0 1 cbr 512 ------- 2 0.0 2.0 21 21
- 0.605 0 1 cbr 512 ------- 2 0.0 2.0 21 21
r 0.609102 1 2 cbr 512 ------- 2 0.0 2.0 12 12
r 0.609551 0 1 cbr 512 ------- 2 0.0 2.0 17 17
+ 0.609551 1 2 cbr 512 ------- 2 0.0 2.0 17 17
- 0.609551 1 2 cbr 512 ------- 2 0.0 2.0 17 17
+ 0.61 0 1 cbr 512 ------- 2 0.0 2.0 22 22
- 0.61 0 1 cbr 512 ------- 2 0.0 2.0 22 22
r 0.614102 1 2 cbr 512 ------- 2 0.0 2.0 13 13
r 0.614551 0 1 cbr 512 ------- 2 0.0 2.0 18 18
+ 0.614551 1 2 cbr 512 ------- 2 0.0 2.0 18 18
- 0.614551 1 2 cbr 512 ------- 2 0.0 2.0 18 18
+ 0.615 0 1 cbr 512 ------- 2 0.0 2.0 23 23
- 0.615 0 1 cbr 512 ------- 2 0.0 2.0 23 23
r 0.619102 1 2 cbr 512 ------- 2 0.0 2.0 14 14
r 0.619551 0 1 cbr 512 ------- 2 0.0 2.0 19 19
+ 0.619551 1 2 cbr 512 ------- 2 0.0 2.0 19 19
- 0.619551 1 2 cbr 512 ------- 2 0.0 2.0 19 19
+ 0.62 0 1 cbr 512 ------- 2 0.0 2.0 24 24
- 0.62 0 1 cbr 512 ------- 2 0.0 2.0 24 24
r 0.624102 1 2 cbr 512 ------- 2 0.0 2.0 15 15
r 0.624551 0 1 cbr 512 ------- 2 0.0 2.0 20 20
+ 0.624551 1 2 cbr 512 ------- 2 0.0 2.0 20 20
- 0.624551 1 2 cbr 512 ------- 2 0.0 2.0 20 20
+ 0.625 0 1 cbr 512 ------- 2 0.0 2.0 25 25
- 0.625 0 1 cbr 512 ------- 2 0.0 2.0 25 25
r 0.629102 1 2 cbr 512 ------- 2 0.0 2.0 16 16
r 0.629551 0 1 cbr 512 ------- 2 0.0 2.0 21 21
+ 0.629551 1 2 cbr 512 ------- 2 0.0 2.0 21 21
- 0.629551 1 2 cbr 512 ------- 2 0.0 2.0 21 21
+ 0.63 0 1 cbr 512 ------- 2 0.0 2.0 26 26
- 0.63 0 1 cbr 512 ------- 2 0.0 2.0 26 26
r 0.634102 1 2 cbr 512 ------- 2 0.0 2.0 17 17
r 0.634551 0 1 cbr 512 ------- 2 0.0 2.0 22 22
+ 0.634551 1 2 cbr 512 ------- 2 0.0 2.0 22 22
- 0.634551 1 2 cbr 512 ------- 2 0.0 2.0 22 22
+ 0.635 0 1 cbr 512 ------- 2 0.0 2.0 27 27
- 0.635 0 1 cbr 512 ------- 2 0.0 2.0 27 27
r 0.639102 1 2 cbr 512 ------- 2 0.0 2.0 18 18
r 0.639551 0 1 cbr 512 ------- 2 0.0 2.0 23 23
+ 0.639551 1 2 cbr 512 ------- 2 0.0 2.0 23 23
- 0.639551 1 2 cbr 512 ------- 2 0.0 2.0 23 23
+ 0.64 0 1 cbr 512 ------- 2 0.0 2.0 28 28
- 0.64 0 1 cbr 512 ------- 2 0.0 2.0 28 28
r 0.644102 1 2 cbr 512 ------- 2 0.0 2.0 19 19
r 0.644551 0 1 cbr 512 ------- 2 0.0 2.0 24 24
+ 0.644551 1 2 cbr 512 ------- 2 0.0 2.0 24 24
- 0.644551 1 2 cbr 512 ------- 2 0.0 2.0 24 24
+ 0.645 0 1 cbr 512 ------- 2 0.0 2.0 29 29
- 0.645 0 1 cbr 512 ------- 2 0.0 2.0 29 29
r 0.649102 1 2 cbr 512 ------- 2 0.0 2.0 20 20
r 0.649551 0 1 cbr 512 ------- 2 0.0 2.0 25 25
+ 0.649551 1 2 cbr 512 ------- 2 0.0 2.0 25 25
- 0.649551 1 2 cbr 512 ------- 2 0.0 2.0 25 25
+ 0.65 0 1 cbr 512 ------- 2 0.0 2.0 30 30
- 0.65 0 1 cbr 512 ------- 2 0.0 2.0 30 30
r 0.654102 1 2 cbr 512 ------- 2 0.0 2.0 21 21
r 0.654551 0 1 cbr 512 ------- 2 0.0 2.0 26 26
+ 0.654551 1 2 cbr 512 ------- 2 0.0 2.0 26 26
- 0.654551 1 2 cbr 512 ------- 2 0.0 2.0 26 26
+ 0.655 0 1 cbr 512 ------- 2 0.0 2.0 31 31
- 0.655 0 1 cbr 512 ------- 2 0.0 2.0 31 31
r 0.659102 1 2 cbr 512 ------- 2 0.0 2.0 22 22
r 0.659551 0 1 cbr 512 ------- 2 0.0 2.0 27 27
+ 0.659551 1 2 cbr 512 ------- 2 0.0 2.0 27 27
- 0.659551 1 2 cbr 512 ------- 2 0.0 2.0 27 27
+ 0.66 0 1 cbr 512 ------- 2 0.0 2.0 32 32
- 0.66 0 1 cbr 512 ------- 2 0.0 2.0 32 32
r 0.664102 1 2 cbr 512 ------- 2 0.0 2.0 23 23
r 0.664551 0 1 cbr 512 ------- 2 0.0 2.0 28 28
+ 0.664551 1 2 cbr 512 ------- 2 0.0 2.0 28 28
- 0.664551 1 2 cbr 512 ------- 2 0.0 2.0 28 28
+ 0.665 0 1 cbr 512 ------- 2 0.0 2.0 33 33
- 0.665 0 1 cbr 512 ------- 2 0.0 2.0 33 33
r 0.669102 1 2 cbr 512 ------- 2 0.0 2.0 24 24
r 0.669551 0 1 cbr 512 ------- 2 0.0 2.0 29 29
+ 0.669551 1 2 cbr 512 ------- 2 0.0 2.0 29 29
- 0.669551 1 2 cbr 512 ------- 2 0.0 2.0 29 29
+ 0.67 0 1 cbr 512 ------- 2 0.0 2.0 34 34
- 0.67 0 1 cbr 512 ------- 2 0.0 2.0 34 34
r 0.674102 1 2 cbr 512 ------- 2 0.0 2.0 25 25
r 0.674551 0 1 cbr 512 ------- 2 0.0 2.0 30 30
+ 0.674551 1 2 cbr 512 ------- 2 0.0 2.0 30 30
- 0.674551 1 2 cbr 512 ------- 2 0.0 2.0 30 30
+ 0.675 0 1 cbr 512 ------- 2 0.0 2.0 35 35
- 0.675 0 1 cbr 512 ------- 2 0.0 2.0 35 35
r 0.679102 1 2 cbr 512 ------- 2 0.0 2.0 26 26
r 0.679551 0 1 cbr 512 ------- 2 0.0 2.0 31 31
+ 0.679551 1 2 cbr 512 ------- 2 0.0 2.0 31 31
- 0.679551 1 2 cbr 512 ------- 2 0.0 2.0 31 31
+ 0.68 0 1 cbr 512 ------- 2 0.0 2.0 36 36
- 0.68 0 1 cbr 512 ------- 2 0.0 2.0 36 36
r 0.684102 1 2 cbr 512 ------- 2 0.0 2.0 27 27
r 0.684551 0 1 cbr 512 ------- 2 0.0 2.0 32 32
+ 0.684551 1 2 cbr 512 ------- 2 0.0 2.0 32 32
- 0.684551 1 2 cbr 512 ------- 2 0.0 2.0 32 32
+ 0.685 0 1 cbr 512 ------- 2 0.0 2.0 37 37
- 0.685 0 1 cbr 512 ------- 2 0.0 2.0 37 37
r 0.689102 1 2 cbr 512 ------- 2 0.0 2.0 28 28
r 0.689551 0 1 cbr 512 ------- 2 0.0 2.0 33 33
+ 0.689551 1 2 cbr 512 ------- 2 0.0 2.0 33 33
- 0.689551 1 2 cbr 512 ------- 2 0.0 2.0 33 33
+ 0.69 0 1 cbr 512 ------- 2 0.0 2.0 38 38
- 0.69 0 1 cbr 512 ------- 2 0.0 2.0 38 38
r 0.694102 1 2 cbr 512 ------- 2 0.0 2.0 29 29
r 0.694551 0 1 cbr 512 ------- 2 0.0 2.0 34 34
+ 0.694551 1 2 cbr 512 ------- 2 0.0 2.0 34 34
- 0.694551 1 2 cbr 512 ------- 2 0.0 2.0 34 34
+ 0.695 0 1 cbr 512 ------- 2 0.0 2.0 39 39
- 0.695 0 1 cbr 512 ------- 2 0.0 2.0 39 39
r 0.699102 1 2 cbr 512 ------- 2 0.0 2.0 30 30
r 0.699551 0 1 cbr 512 ------- 2 0.0 2.0 35 35
+ 0.699551 1 2 cbr 512 ------- 2 0.0 2.0 35 35
- 0.699551 1 2 cbr 512 ------- 2 0.0 2.0 35 35
+ 0.7 0 1 cbr 512 ------- 2 0.0 2.0 40 40
- 0.7 0 1 cbr 512 ------- 2 0.0 2.0 40 40
r 0.704102 1 2 cbr 512 ------- 2 0.0 2.0 31 31
r 0.704551 0 1 cbr 512 ------- 2 0.0 2.0 36 36
+ 0.704551 1 2 cbr 512 ------- 2 0.0 2.0 36 36
- 0.704551 1 2 cbr 512 ------- 2 0.0 2.0 36 36
+ 0.705 0 1 cbr 512 ------- 2 0.0 2.0 41 41
- 0.705 0 1 cbr 512 ------- 2 0.0 2.0 41 41
r 0.709102 1 2 cbr 512 ------- 2 0.0 2.0 32 32
r 0.709551 0 1 cbr 512 ------- 2 0.0 2.0 37 37
+ 0.709551 1 2 cbr 512 ------- 2 0.0 2.0 37 37
- 0.709551 1 2 cbr 512 ------- 2 0.0 2.0 37 37
+ 0.71 0 1 cbr 512 ------- 2 0.0 2.0 42 42
- 0.71 0 1 cbr 512 ------- 2 0.0 2.0 42 42
r 0.714102 1 2 cbr 512 ------- 2 0.0 2.0 33 33
r 0.714551 0 1 cbr 512 ------- 2 0.0 2.0 38 38
+ 0.714551 1 2 cbr 512 ------- 2 0.0 2.0 38 38
- 0.714551 1 2 cbr 512 ------- 2 0.0 2.0 38 38
+ 0.715 0 1 cbr 512 ------- 2 0.0 2.0 43 43
- 0.715 0 1 cbr 512 ------- 2 0.0 2.0 43 43
r 0.719102 1 2 cbr 512 ------- 2 0.0 2.0 34 34
r 0.719551 0 1 cbr 512 ------- 2 0.0 2.0 39 39
+ 0.719551 1 2 cbr 512 ------- 2 0.0 2.0 39 39
- 0.719551 1 2 cbr 512 ------- 2 0.0 2.0 39 39
+ 0.72 0 1 cbr 512 ------- 2 0.0 2.0 44 44
- 0.72 0 1 cbr 512 ------- 2 0.0 2.0 44 44
r 0.724102 1 2 cbr 512 ------- 2 0.0 2.0 35 35
r 0.724551 0 1 cbr 512 ------- 2 0.0 2.0 40 40
+ 0.724551 1 2 cbr 512 ------- 2 0.0 2.0 40 40
- 0.724551 1 2 cbr 512 ------- 2 0.0 2.0 40 40
+ 0.725 0 1 cbr 512 ------- 2 0.0 2.0 45 45
- 0.725 0 1 cbr 512 ------- 2 0.0 2.0 45 45
r 0.729102 1 2 cbr 512 ------- 2 0.0 2.0 36 36
r 0.729551 0 1 cbr 512 ------- 2 0.0 2.0 41 41
+ 0.729551 1 2 cbr 512 ------- 2 0.0 2.0 41 41
- 0.729551 1 2 cbr 512 ------- 2 0.0 2.0 41 41
+ 0.73 0 1 cbr 512 ------- 2 0.0 2.0 46 46
- 0.73 0 1 cbr 512 ------- 2 0.0 2.0 46 46
r 0.734102 1 2 cbr 512 ------- 2 0.0 2.0 37 37
r 0.734551 0 1 cbr 512 ------- 2 0.0 2.0 42 42
+ 0.734551 1 2 cbr 512 ------- 2 0.0 2.0 42 42
- 0.734551 1 2 cbr 512 ------- 2 0.0 2.0 42 42
+ 0.735 0 1 cbr 512 ------- 2 0.0 2.0 47 47
- 0.735 0 1 cbr 512 ------- 2 0.0 2.0 47 47
r 0.739102 1 2 cbr 512 ------- 2 0.0 2.0 38 38
r 0.739551 0 1 cbr 512 ------- 2 0.0 2.0 43 43
+ 0.739551 1 2 cbr 512 ------- 2 0.0 2.0 43 43
- 0.739551 1 2 cbr 512 ------- 2 0.0 2.0 43 43
+ 0.74 0 1 cbr 512 ------- 2 0.0 2.0 48 48
- 0.74 0 1 cbr 512 ------- 2 0.0 2.0 48 48
r 0.744102 1 2 cbr 512 ------- 2 0.0 2.0 39 39
r 0.744551 0 1 cbr 512 ------- 2 0.0 2.0 44 44
+ 0.744551 1 2 cbr 512 ------- 2 0.0 2.0 44 44
- 0.744551 1 2 cbr 512 ------- 2 0.0 2.0 44 44
+ 0.745 0 1 cbr 512 ------- 2 0.0 2.0 49 49
- 0.745 0 1 cbr 512 ------- 2 0.0 2.0 49 49
r 0.749102 1 2 cbr 512 ------- 2 0.0 2.0 40 40
r 0.749551 0 1 cbr 512 ------- 2 0.0 2.0 45 45
+ 0.749551 1 2 cbr 512 ------- 2 0.0 2.0 45 45
- 0.749551 1 2 cbr 512 ------- 2 0.0 2.0 45 45
+ 0.75 0 1 cbr 512 ------- 2 0.0 2.0 50 50
- 0.75 0 1 cbr 512 ------- 2 0.0 2.0 50 50
r 0.754102 1 2 cbr 512 ------- 2 0.0 2.0 41 41
r 0.754551 0 1 cbr 512 ------- 2 0.0 2.0 46 46
+ 0.754551 1 2 cbr 512 ------- 2 0.0 2.0 46 46
- 0.754551 1 2 cbr 512 ------- 2 0.0 2.0 46 46
+ 0.755 0 1 cbr 512 ------- 2 0.0 2.0 51 51
- 0.755 0 1 cbr 512 ------- 2 0.0 2.0 51 51
r 0.759102 1 2 cbr 512 ------- 2 0.0 2.0 42 42
r 0.759551 0 1 cbr 512 ------- 2 0.0 2.0 47 47
+ 0.759551 1 2 cbr 512 ------- 2 0.0 2.0 47 47
- 0.759551 1 2 cbr 512 ------- 2 0.0 2.0 47 47
+ 0.76 0 1 cbr 512 ------- 2 0.0 2.0 52 52
- 0.76 0 1 cbr 512 ------- 2 0.0 2.0 52 52
r 0.764102 1 2 cbr 512 ------- 2 0.0 2.0 43 43
r 0.764551 0 1 cbr 512 ------- 2 0.0 2.0 48 48
+ 0.764551 1 2 cbr 512 ------- 2 0.0 2.0 48 48
- 0.764551 1 2 cbr 512 ------- 2 0.0 2.0 48 48
+ 0.765 0 1 cbr 512 ------- 2 0.0 2.0 53 53
- 0.765 0 1 cbr 512 ------- 2 0.0 2.0 53 53
r 0.769102 1 2 cbr 512 ------- 2 0.0 2.0 44 44
r 0.769551 0 1 cbr 512 ------- 2 0.0 2.0 49 49
+ 0.769551 1 2 cbr 512 ------- 2 0.0 2.0 49 49
- 0.769551 1 2 cbr 512 ------- 2 0.0 2.0 49 49
+ 0.77 0 1 cbr 512 ------- 2 0.0 2.0 54 54
- 0.77 0 1 cbr 512 ------- 2 0.0 2.0 54 54
r 0.774102 1 2 cbr 512 ------- 2 0.0 2.0 45 45
r 0.774551 0 1 cbr 512 ------- 2 0.0 2.0 50 50
+ 0.774551 1 2 cbr 512 ------- 2 0.0 2.0 50 50
- 0.774551 1 2 cbr 512 ------- 2 0.0 2.0 50 50
+ 0.775 0 1 cbr 512 ------- 2 0.0 2.0 55 55
- 0.775 0 1 cbr 512 ------- 2 0.0 2.0 55 55
r 0.779102 1 2 cbr 512 ------- 2 0.0 2.0 46 46
r 0.779551 0 1 cbr 512 ------- 2 0.0 2.0 51 51
+ 0.779551 1 2 cbr 512 ------- 2 0.0 2.0 51 51
- 0.779551 1 2 cbr 512 ------- 2 0.0 2.0 51 51
+ 0.78 0 1 cbr 512 ------- 2 0.0 2.0 56 56
- 0.78 0 1 cbr 512 ------- 2 0.0 2.0 56 56
r 0.784102 1 2 cbr 512 ------- 2 0.0 2.0 47 47
r 0.784551 0 1 cbr 512 ------- 2 0.0 2.0 52 52
+ 0.784551 1 2 cbr 512 ------- 2 0.0 2.0 52 52
- 0.784551 1 2 cbr 512 ------- 2 0.0 2.0 52 52
+ 0.785 0 1 cbr 512 ------- 2 0.0 2.0 57 57
- 0.785 0 1 cbr 512 ------- 2 0.0 2.0 57 57
r 0.789102 1 2 cbr 512 ------- 2 0.0 2.0 48 48
r 0.789551 0 1 cbr 512 ------- 2 0.0 2.0 53 53
+ 0.789551 1 2 cbr 512 ------- 2 0.0 2.0 53 53
- 0.789551 1 2 cbr 512 ------- 2 0.0 2.0 53 53
+ 0.79 0 1 cbr 512 ------- 2 0.0 2.0 58 58
- 0.79 0 1 cbr 512 ------- 2 0.0 2.0 58 58
r 0.794102 1 2 cbr 512 ------- 2 0.0 2.0 49 49
r 0.794551 0 1 cbr 512 ------- 2 0.0 2.0 54 54
+ 0.794551 1 2 cbr 512 ------- 2 0.0 2.0 54 54
- 0.794551 1 2 cbr 512 ------- 2 0.0 2.0 54 54
+ 0.795 0 1 cbr 512 ------- 2 0.0 2.0 59 59
- 0.795 0 1 cbr 512 ------- 2 0.0 2.0 59 59
r 0.799102 1 2 cbr 512 ------- 2 0.0 2.0 50 50
r 0.799551 0 1 cbr 512 ------- 2 0.0 2.0 55 55
+ 0.799551 1 2 cbr 512 ------- 2 0.0 2.0 55 55
- 0.799551 1 2 cbr 512 ------- 2 0.0 2.0 55 55
+ 0.8 0 1 cbr 512 ------- 2 0.0 2.0 60 60
- 0.8 0 1 cbr 512 ------- 2 0.0 2.0 60 60
r 0.804102 1 2 cbr 512 ------- 2 0.0 2.0 51 51
r 0.804551 0 1 cbr 512 ------- 2 0.0 2.0 56 56
+ 0.804551 1 2 cbr 512 ------- 2 0.0 2.0 56 56
- 0.804551 1 2 cbr 512 ------- 2 0.0 2.0 56 56
+ 0.805 0 1 cbr 512 ------- 2 0.0 2.0 61 61
- 0.805 0 1 cbr 512 ------- 2 0.0 2.0 61 61
r 0.809102 1 2 cbr 512 ------- 2 0.0 2.0 52 52
r 0.809551 0 1 cbr 512 ------- 2 0.0 2.0 57 57
+ 0.809551 1 2 cbr 512 ------- 2 0.0 2.0 57 57
- 0.809551 1 2 cbr 512 ------- 2 0.0 2.0 57 57
+ 0.81 0 1 cbr 512 ------- 2 0.0 2.0 62 62
- 0.81 0 1 cbr 512 ------- 2 0.0 2.0 62 62
r 0.814102 1 2 cbr 512 ------- 2 0.0 2.0 53 53
r 0.814551 0 1 cbr 512 ------- 2 0.0 2.0 58 58
+ 0.814551 1 2 cbr 512 ------- 2 0.0 2.0 58 58
- 0.814551 1 2 cbr 512 ------- 2 0.0 2.0 58 58
+ 0.815 0 1 cbr 512 ------- 2 0.0 2.0 63 63
- 0.815 0 1 cbr 512 ------- 2 0.0 2.0 63 63
r 0.819102 1 2 cbr 512 ------- 2 0.0 2.0 54 54
r 0.819551 0 1 cbr 512 ------- 2 0.0 2.0 59 59
+ 0.819551 1 2 cbr 512 ------- 2 0.0 2.0 59 59
- 0.819551 1 2 cbr 512 ------- 2 0.0 2.0 59 59
+ 0.82 0 1 cbr 512 ------- 2 0.0 2.0 64 64
- 0.82 0 1 cbr 512 ------- 2 0.0 2.0 64 64
r 0.824102 1 2 cbr 512 ------- 2 0.0 2.0 55 55
r 0.824551 0 1 cbr 512 ------- 2 0.0 2.0 60 60
+ 0.824551 1 2 cbr 512 ------- 2 0.0 2.0 60 60
- 0.824551 1 2 cbr 512 ------- 2 0.0 2.0 60 60
+ 0.825 0 1 cbr 512 ------- 2 0.0 2.0 65 65
- 0.825 0 1 cbr 512 ------- 2 0.0 2.0 65 65
r 0.829102 1 2 cbr 512 ------- 2 0.0 2.0 56 56
r 0.829551 0 1 cbr 512 ------- 2 0.0 2.0 61 61
+ 0.829551 1 2 cbr 512 ------- 2 0.0 2.0 61 61
- 0.829551 1 2 cbr 512 ------- 2 0.0 2.0 61 61
+ 0.83 0 1 cbr 512 ------- 2 0.0 2.0 66 66
- 0.83 0 1 cbr 512 ------- 2 0.0 2.0 66 66
r 0.834102 1 2 cbr 512 ------- 2 0.0 2.0 57 57
r 0.834551 0 1 cbr 512 ------- 2 0.0 2.0 62 62
+ 0.834551 1 2 cbr 512 ------- 2 0.0 2.0 62 62
- 0.834551 1 2 cbr 512 ------- 2 0.0 2.0 62 62
+ 0.835 0 1 cbr 512 ------- 2 0.0 2.0 67 67
- 0.835 0 1 cbr 512 ------- 2 0.0 2.0 67 67
r 0.839102 1 2 cbr 512 ------- 2 0.0 2.0 58 58
r 0.839551 0 1 cbr 512 ------- 2 0.0 2.0 63 63
+ 0.839551 1 2 cbr 512 ------- 2 0.0 2.0 63 63
- 0.839551 1 2 cbr 512 ------- 2 0.0 2.0 63 63
+ 0.84 0 1 cbr 512 ------- 2 0.0 2.0 68 68
- 0.84 0 1 cbr 512 ------- 2 0.0 2.0 68 68
r 0.844102 1 2 cbr 512 ------- 2 0.0 2.0 59 59
r 0.844551 0 1 cbr 512 ------- 2 0.0 2.0 64 64
+ 0.844551 1 2 cbr 512 ------- 2 0.0 2.0 64 64
- 0.844551 1 2 cbr 512 ------- 2 0.0 2.0 64 64
+ 0.845 0 1 cbr 512 ------- 2 0.0 2.0 69 69
- 0.845 0 1 cbr 512 ------- 2 0.0 2.0 69 69
r 0.849102 1 2 cbr 512 ------- 2 0.0 2.0 60 60
r 0.849551 0 1 cbr 512 ------- 2 0.0 2.0 65 65
+ 0.849551 1 2 cbr 512 ------- 2 0.0 2.0 65 65
- 0.849551 1 2 cbr 512 ------- 2 0.0 2.0 65 65
+ 0.85 0 1 cbr 512 ------- 2 0.0 2.0 70 70
- 0.85 0 1 cbr 512 ------- 2 0.0 2.0 70 70
r 0.854102 1 2 cbr 512 ------- 2 0.0 2.0 61 61
r 0.854551 0 1 cbr 512 ------- 2 0.0 2.0 66 66
+ 0.854551 1 2 cbr 512 ------- 2 0.0 2.0 66 66
- 0.854551 1 2 cbr 512 ------- 2 0.0 2.0 66 66
+ 0.855 0 1 cbr 512 ------- 2 0.0 2.0 71 71
- 0.855 0 1 cbr 512 ------- 2 0.0 2.0 71 71
r 0.859102 1 2 cbr 512 ------- 2 0.0 2.0 62 62
r 0.859551 0 1 cbr 512 ------- 2 0.0 2.0 67 67
+ 0.859551 1 2 cbr 512 ------- 2 0.0 2.0 67 67
- 0.859551 1 2 cbr 512 ------- 2 0.0 2.0 67 67
+ 0.86 0 1 cbr 512 ------- 2 0.0 2.0 72 72
- 0.86 0 1 cbr 512 ------- 2 0.0 2.0 72 72
r 0.864102 1 2 cbr 512 ------- 2 0.0 2.0 63 63
r 0.864551 0 1 cbr 512 ------- 2 0.0 2.0 68 68
+ 0.864551 1 2 cbr 512 ------- 2 0.0 2.0 68 68
- 0.864551 1 2 cbr 512 ------- 2 0.0 2.0 68 68
+ 0.865 0 1 cbr 512 ------- 2 0.0 2.0 73 73
- 0.865 0 1 cbr 512 ------- 2 0.0 2.0 73 73
r 0.869102 1 2 cbr 512 ------- 2 0.0 2.0 64 64
r 0.869551 0 1 cbr 512 ------- 2 0.0 2.0 69 69
+ 0.869551 1 2 cbr 512 ------- 2 0.0 2.0 69 69
- 0.869551 1 2 cbr 512 ------- 2 0.0 2.0 69 69
+ 0.87 0 1 cbr 512 ------- 2 0.0 2.0 74 74
- 0.87 0 1 cbr 512 ------- 2 0.0 2.0 74 74
r 0.874102 1 2 cbr 512 ------- 2 0.0 2.0 65 65
r 0.874551 0 1 cbr 512 ------- 2 0.0 2.0 70 70
+ 0.874551 1 2 cbr 512 ------- 2 0.0 2.0 70 70
- 0.874551 1 2 cbr 512 ------- 2 0.0 2.0 70 70
+ 0.875 0 1 cbr 512 ------- 2 0.0 2.0 75 75
- 0.875 0 1 cbr 512 ------- 2 0.0 2.0 75 75
r 0.879102 1 2 cbr 512 ------- 2 0.0 2.0 66 66
r 0.879551 0 1 cbr 512 ------- 2 0.0 2.0 71 71
+ 0.879551 1 2 cbr 512 ------- 2 0.0 2.0 71 71
- 0.879551 1 2 cbr 512 ------- 2 0.0 2.0 71 71
+ 0.88 0 1 cbr 512 ------- 2 0.0 2.0 76 76
- 0.88 0 1 cbr 512 ------- 2 0.0 2.0 76 76
r 0.884102 1 2 cbr 512 ------- 2 0.0 2.0 67 67
r 0.884551 0 1 cbr 512 ------- 2 0.0 2.0 72 72
+ 0.884551 1 2 cbr 512 ------- 2 0.0 2.0 72 72
- 0.884551 1 2 cbr 512 ------- 2 0.0 2.0 72 72
+ 0.885 0 1 cbr 512 ------- 2 0.0 2.0 77 77
- 0.885 0 1 cbr 512 ------- 2 0.0 2.0 77 77
r 0.889102 1 2 cbr 512 ------- 2 0.0 2.0 68 68
r 0.889551 0 1 cbr 512 ------- 2 0.0 2.0 73 73
+ 0.889551 1 2 cbr 512 ------- 2 0.0 2.0 73 73
- 0.889551 1 2 cbr 512 ------- 2 0.0 2.0 73 73
+ 0.89 0 1 cbr 512 ------- 2 0.0 2.0 78 78
- 0.89 0 1 cbr 512 ------- 2 0.0 2.0 78 78
r 0.894102 1 2 cbr 512 ------- 2 0.0 2.0 69 69
r 0.894551 0 1 cbr 512 ------- 2 0.0 2.0 74 74
+ 0.894551 1 2 cbr 512 ------- 2 0.0 2.0 74 74
- 0.894551 1 2 cbr 512 ------- 2 0.0 2.0 74 74
+ 0.895 0 1 cbr 512 ------- 2 0.0 2.0 79 79
- 0.895 0 1 cbr 512 ------- 2 0.0 2.0 79 79
r 0.899102 1 2 cbr 512 ------- 2 0.0 2.0 70 70
r 0.899551 0 1 cbr 512 ------- 2 0.0 2.0 75 75
+ 0.899551 1 2 cbr 512 ------- 2 0.0 2.0 75 75
- 0.899551 1 2 cbr 512 ------- 2 0.0 2.0 75 75
+ 0.9 0 1 cbr 512 ------- 2 0.0 2.0 80 80
- 0.9 0 1 cbr 512 ------- 2 0.0 2.0 80 80
r 0.904102 1 2 cbr 512 ------- 2 0.0 2.0 71 71
r 0.904551 0 1 cbr 512 ------- 2 0.0 2.0 76 76
+ 0.904551 1 2 cbr 512 ------- 2 0.0 2.0 76 76
- 0.904551 1 2 cbr 512 ------- 2 0.0 2.0 76 76
+ 0.905 0 1 cbr 512 ------- 2 0.0 2.0 81 81
- 0.905 0 1 cbr 512 ------- 2 0.0 2.0 81 81
r 0.909102 1 2 cbr 512 ------- 2 0.0 2.0 72 72
r 0.909551 0 1 cbr 512 ------- 2 0.0 2.0 77 77
+ 0.909551 1 2 cbr 512 ------- 2 0.0 2.0 77 77
- 0.909551 1 2 cbr 512 ------- 2 0.0 2.0 77 77
+ 0.91 0 1 cbr 512 ------- 2 0.0 2.0 82 82
- 0.91 0 1 cbr 512 ------- 2 0.0 2.0 82 82
r 0.914102 1 2 cbr 512 ------- 2 0.0 2.0 73 73
r 0.914551 0 1 cbr 512 ------- 2 0.0 2.0 78 78
+ 0.914551 1 2 cbr 512 ------- 2 0.0 2.0 78 78
- 0.914551 1 2 cbr 512 ------- 2 0.0 2.0 78 78
+ 0.915 0 1 cbr 512 ------- 2 0.0 2.0 83 83
- 0.915 0 1 cbr 512 ------- 2 0.0 2.0 83 83
r 0.919102 1 2 cbr 512 ------- 2 0.0 2.0 74 74
r 0.919551 0 1 cbr 512 ------- 2 0.0 2.0 79 79
+ 0.919551 1 2 cbr 512 ------- 2 0.0 2.0 79 79
- 0.919551 1 2 cbr 512 ------- 2 0.0 2.0 79 79
+ 0.92 0 1 cbr 512 ------- 2 0.0 2.0 84 84
- 0.92 0 1 cbr 512 ------- 2 0.0 2.0 84 84
r 0.924102 1 2 cbr 512 ------- 2 0.0 2.0 75 75
r 0.924551 0 1 cbr 512 ------- 2 0.0 2.0 80 80
+ 0.924551 1 2 cbr 512 ------- 2 0.0 2.0 80 80
- 0.924551 1 2 cbr 512 ------- 2 0.0 2.0 80 80
+ 0.925 0 1 cbr 512 ------- 2 0.0 2.0 85 85
- 0.925 0 1 cbr 512 ------- 2 0.0 2.0 85 85
r 0.929102 1 2 cbr 512 ------- 2 0.0 2.0 76 76
r 0.929551 0 1 cbr 512 ------- 2 0.0 2.0 81 81
+ 0.929551 1 2 cbr 512 ------- 2 0.0 2.0 81 81
- 0.929551 1 2 cbr 512 ------- 2 0.0 2.0 81 81
+ 0.93 0 1 cbr 512 ------- 2 0.0 2.0 86 86
- 0.93 0 1 cbr 512 ------- 2 0.0 2.0 86 86
r 0.934102 1 2 cbr 512 ------- 2 0.0 2.0 77 77
r 0.934551 0 1 cbr 512 ------- 2 0.0 2.0 82 82
+ 0.934551 1 2 cbr 512 ------- 2 0.0 2.0 82 82
- 0.934551 1 2 cbr 512 ------- 2 0.0 2.0 82 82
+ 0.935 0 1 cbr 512 ------- 2 0.0 2.0 87 87
- 0.935 0 1 cbr 512 ------- 2 0.0 2.0 87 87
r 0.939102 1 2 cbr 512 ------- 2 0.0 2.0 78 78
r 0.939551 0 1 cbr 512 ------- 2 0.0 2.0 83 83
+ 0.939551 1 2 cbr 512 ------- 2 0.0 2.0 83 83
- 0.939551 1 2 cbr 512 ------- 2 0.0 2.0 83 83
+ 0.94 0 1 cbr 512 ------- 2 0.0 2.0 88 88
- 0.94 0 1 cbr 512 ------- 2 0.0 2.0 88 88
r 0.944102 1 2 cbr 512 ------- 2 0.0 2.0 79 79
r 0.944551 0 1 cbr 512 ------- 2 0.0 2.0 84 84
+ 0.944551 1 2 cbr 512 ------- 2 0.0 2.0 84 84
- 0.944551 1 2 cbr 512 ------- 2 0.0 2.0 84 84
+ 0.945 0 1 cbr 512 ------- 2 0.0 2.0 89 89
- 0.945 0 1 cbr 512 ------- 2 0.0 2.0 89 89
r 0.949102 1 2 cbr 512 ------- 2 0.0 2.0 80 80
r 0.949551 0 1 cbr 512 ------- 2 0.0 2.0 85 85
+ 0.949551 1 2 cbr 512 ------- 2 0.0 2.0 85 85
- 0.949551 1 2 cbr 512 ------- 2 0.0 2.0 85 85
+ 0.95 0 1 cbr 512 ------- 2 0.0 2.0 90 90
- 0.95 0 1 cbr 512 ------- 2 0.0 2.0 90 90
r 0.954102 1 2 cbr 512 ------- 2 0.0 2.0 81 81
r 0.954551 0 1 cbr 512 ------- 2 0.0 2.0 86 86
+ 0.954551 1 2 cbr 512 ------- 2 0.0 2.0 86 86
- 0.954551 1 2 cbr 512 ------- 2 0.0 2.0 86 86
+ 0.955 0 1 cbr 512 ------- 2 0.0 2.0 91 91
- 0.955 0 1 cbr 512 ------- 2 0.0 2.0 91 91
r 0.959102 1 2 cbr 512 ------- 2 0.0 2.0 82 82
r 0.959551 0 1 cbr 512 ------- 2 0.0 2.0 87 87
+ 0.959551 1 2 cbr 512 ------- 2 0.0 2.0 87 87
- 0.959551 1 2 cbr 512 ------- 2 0.0 2.0 87 87
+ 0.96 0 1 cbr 512 ------- 2 0.0 2.0 92 92
- 0.96 0 1 cbr 512 ------- 2 0.0 2.0 92 92
r 0.964102 1 2 cbr 512 ------- 2 0.0 2.0 83 83
r 0.964551 0 1 cbr 512 ------- 2 0.0 2.0 88 88
+ 0.964551 1 2 cbr 512 ------- 2 0.0 2.0 88 88
- 0.964551 1 2 cbr 512 ------- 2 0.0 2.0 88 88
+ 0.965 0 1 cbr 512 ------- 2 0.0 2.0 93 93
- 0.965 0 1 cbr 512 ------- 2 0.0 2.0 93 93
r 0.969102 1 2 cbr 512 ------- 2 0.0 2.0 84 84
r 0.969551 0 1 cbr 512 ------- 2 0.0 2.0 89 89
+ 0.969551 1 2 cbr 512 ------- 2 0.0 2.0 89 89
- 0.969551 1 2 cbr 512 ------- 2 0.0 2.0 89 89
+ 0.97 0 1 cbr 512 ------- 2 0.0 2.0 94 94
- 0.97 0 1 cbr 512 ------- 2 0.0 2.0 94 94
r 0.974102 1 2 cbr 512 ------- 2 0.0 2.0 85 85
r 0.974551 0 1 cbr 512 ------- 2 0.0 2.0 90 90
+ 0.974551 1 2 cbr 512 ------- 2 0.0 2.0 90 90
- 0.974551 1 2 cbr 512 ------- 2 0.0 2.0 90 90
+ 0.975 0 1 cbr 512 ------- 2 0.0 2.0 95 95
- 0.975 0 1 cbr 512 ------- 2 0.0 2.0 95 95
r 0.979102 1 2 cbr 512 ------- 2 0.0 2.0 86 86
r 0.979551 0 1 cbr 512 ------- 2 0.0 2.0 91 91
+ 0.979551 1 2 cbr 512 ------- 2 0.0 2.0 91 91
- 0.979551 1 2 cbr 512 ------- 2 0.0 2.0 91 91
+ 0.98 0 1 cbr 512 ------- 2 0.0 2.0 96 96
- 0.98 0 1 cbr 512 ------- 2 0.0 2.0 96 96
r 0.984102 1 2 cbr 512 ------- 2 0.0 2.0 87 87
r 0.984551 0 1 cbr 512 ------- 2 0.0 2.0 92 92
+ 0.984551 1 2 cbr 512 ------- 2 0.0 2.0 92 92
- 0.984551 1 2 cbr 512 ------- 2 0.0 2.0 92 92
+ 0.985 0 1 cbr 512 ------- 2 0.0 2.0 97 97
- 0.985 0 1 cbr 512 ------- 2 0.0 2.0 97 97
r 0.989102 1 2 cbr 512 ------- 2 0.0 2.0 88 88
r 0.989551 0 1 cbr 512 ------- 2 0.0 2.0 93 93
+ 0.989551 1 2 cbr 512 ------- 2 0.0 2.0 93 93
- 0.989551 1 2 cbr 512 ------- 2 0.0 2.0 93 93
+ 0.99 0 1 cbr 512 ------- 2 0.0 2.0 98 98
- 0.99 0 1 cbr 512 ------- 2 0.0 2.0 98 98
r 0.994102 1 2 cbr 512 ------- 2 0.0 2.0 89 89
r 0.994551 0 1 cbr 512 ------- 2 0.0 2.0 94 94
+ 0.994551 1 2 cbr 512 ------- 2 0.0 2.0 94 94
- 0.994551 1 2 cbr 512 ------- 2 0.0 2.0 94 94
+ 0.995 0 1 cbr 512 ------- 2 0.0 2.0 99 99
- 0.995 0 1 cbr 512 ------- 2 0.0 2.0 99 99
r 0.999102 1 2 cbr 512 ------- 2 0.0 2.0 90 90
r 0.999551 0 1 cbr 512 ------- 2 0.0 2.0 95 95
+ 0.999551 1 2 cbr 512 ------- 2 0.0 2.0 95 95
- 0.999551 1 2 cbr 512 ------- 2 0.0 2.0 95 95
+ 1 0 1 cbr 512 ------- 2 0.0 2.0 100 100
- 1 0 1 cbr 512 ------- 2 0.0 2.0 100 100
r 1.004102 1 2 cbr 512 ------- 2 0.0 2.0 91 91
r 1.004551 0 1 cbr 512 ------- 2 0.0 2.0 96 96
+ 1.004551 1 2 cbr 512 ------- 2 0.0 2.0 96 96
- 1.004551 1 2 cbr 512 ------- 2 0.0 2.0 96 96
+ 1.005 0 1 cbr 512 ------- 2 0.0 2.0 101 101
- 1.005 0 1 cbr 512 ------- 2 0.0 2.0 101 101
r 1.009102 1 2 cbr 512 ------- 2 0.0 2.0 92 92
r 1.009551 0 1 cbr 512 ------- 2 0.0 2.0 97 97
+ 1.009551 1 2 cbr 512 ------- 2 0.0 2.0 97 97
- 1.009551 1 2 cbr 512 ------- 2 0.0 2.0 97 97
+ 1.01 0 1 cbr 512 ------- 2 0.0 2.0 102 102
- 1.01 0 1 cbr 512 ------- 2 0.0 2.0 102 102
r 1.014102 1 2 cbr 512 ------- 2 0.0 2.0 93 93
r 1.014551 0 1 cbr 512 ------- 2 0.0 2.0 98 98
+ 1.014551 1 2 cbr 512 ------- 2 0.0 2.0 98 98
- 1.014551 1 2 cbr 512 ------- 2 0.0 2.0 98 98
+ 1.015 0 1 cbr 512 ------- 2 0.0 2.0 103 103
- 1.015 0 1 cbr 512 ------- 2 0.0 2.0 103 103
r 1.019102 1 2 cbr 512 ------- 2 0.0 2.0 94 94
r 1.019551 0 1 cbr 512 ------- 2 0.0 2.0 99 99
+ 1.019551 1 2 cbr 512 ------- 2 0.0 2.0 99 99
- 1.019551 1 2 cbr 512 ------- 2 0.0 2.0 99 99
+ 1.02 0 1 cbr 512 ------- 2 0.0 2.0 104 104
- 1.02 0 1 cbr 512 ------- 2 0.0 2.0 104 104
r 1.024102 1 2 cbr 512 ------- 2 0.0 2.0 95 95
r 1.024551 0 1 cbr 512 ------- 2 0.0 2.0 100 100
+ 1.024551 1 2 cbr 512 ------- 2 0.0 2.0 100 100
- 1.024551 1 2 cbr 512 ------- 2 0.0 2.0 100 100
+ 1.025 0 1 cbr 512 ------- 2 0.0 2.0 105 105
- 1.025 0 1 cbr 512 ------- 2 0.0 2.0 105 105
r 1.029102 1 2 cbr 512 ------- 2 0.0 2.0 96 96
r 1.029551 0 1 cbr 512 ------- 2 0.0 2.0 101 101
+ 1.029551 1 2 cbr 512 ------- 2 0.0 2.0 101 101
- 1.029551 1 2 cbr 512 ------- 2 0.0 2.0 101 101
+ 1.03 0 1 cbr 512 ------- 2 0.0 2.0 106 106
- 1.03 0 1 cbr 512 ------- 2 0.0 2.0 106 106
r 1.034102 1 2 cbr 512 ------- 2 0.0 2.0 97 97
r 1.034551 0 1 cbr 512 ------- 2 0.0 2.0 102 102
+ 1.034551 1 2 cbr 512 ------- 2 0.0 2.0 102 102
- 1.034551 1 2 cbr 512 ------- 2 0.0 2.0 102 102
+ 1.035 0 1 cbr 512 ------- 2 0.0 2.0 107 107
- 1.035 0 1 cbr 512 ------- 2 0.0 2.0 107 107
r 1.039102 1 2 cbr 512 ------- 2 0.0 2.0 98 98
r 1.039551 0 1 cbr 512 ------- 2 0.0 2.0 103 103
+ 1.039551 1 2 cbr 512 ------- 2 0.0 2.0 103 103
- 1.039551 1 2 cbr 512 ------- 2 0.0 2.0 103 103
+ 1.04 0 1 cbr 512 ------- 2 0.0 2.0 108 108
- 1.04 0 1 cbr 512 ------- 2 0.0 2.0 108 108
r 1.044102 1 2 cbr 512 ------- 2 0.0 2.0 99 99
r 1.044551 0 1 cbr 512 ------- 2 0.0 2.0 104 104
+ 1.044551 1 2 cbr 512 ------- 2 0.0 2.0 104 104
- 1.044551 1 2 cbr 512 ------- 2 0.0 2.0 104 104
+ 1.045 0 1 cbr 512 ------- 2 0.0 2.0 109 109
- 1.045 0 1 cbr 512 ------- 2 0.0 2.0 109 109
r 1.049102 1 2 cbr 512 ------- 2 0.0 2.0 100 100
r 1.049551 0 1 cbr 512 ------- 2 0.0 2.0 105 105
+ 1.049551 1 2 cbr 512 ------- 2 0.0 2.0 105 105
- 1.049551 1 2 cbr 512 ------- 2 0.0 2.0 105 105
+ 1.05 0 1 cbr 512 ------- 2 0.0 2.0 110 110
- 1.05 0 1 cbr 512 ------- 2 0.0 2.0 110 110
r 1.054102 1 2 cbr 512 ------- 2 0.0 2.0 101 101
r 1.054551 0 1 cbr 512 ------- 2 0.0 2.0 106 106
+ 1.054551 1 2 cbr 512 ------- 2 0.0 2.0 106 106
- 1.054551 1 2 cbr 512 ------- 2 0.0 2.0 106 106
+ 1.055 0 1 cbr 512 ------- 2 0.0 2.0 111 111
- 1.055 0 1 cbr 512 ------- 2 0.0 2.0 111 111
r 1.059102 1 2 cbr 512 ------- 2 0.0 2.0 102 102
r 1.059551 0 1 cbr 512 ------- 2 0.0 2.0 107 107
+ 1.059551 1 2 cbr 512 ------- 2 0.0 2.0 107 107
- 1.059551 1 2 cbr 512 ------- 2 0.0 2.0 107 107
+ 1.06 0 1 cbr 512 ------- 2 0.0 2.0 112 112
- 1.06 0 1 cbr 512 ------- 2 0.0 2.0 112 112
r 1.064102 1 2 cbr 512 ------- 2 0.0 2.0 103 103
r 1.064551 0 1 cbr 512 ------- 2 0.0 2.0 108 108