V -t * -v 1.0a5 -a 0
A -t * -n 1 -p 0 -o 0x7fffffff -c 30 -a 1
A -t * -h 1 -m 1073741823 -s 0
c -t * -i 1 -n lightblue
c -t * -i 2 -n lightgreen
n -t * -a 4 -s 4 -S UP -v circle -c black -i black
n -t * -a 0 -s 0 -S UP -v circle -c black -i black
n -t * -a 5 -s 5 -S UP -v circle -c black -i black
n -t * -a 1 -s 1 -S UP -v circle -c black -i black
n -t * -a 2 -s 2 -S UP -v circle -c black -i black
n -t * -a 3 -s 3 -S UP -v circle -c black -i black
l -t * -s 0 -d 2 -S UP -r 1000000 -D 0.01 -c black -o right-down
l -t * -s 1 -d 2 -S UP -r 1000000 -D 0.01 -c black -o right-up
l -t * -s 2 -d 3 -S UP -r 300000 -D 0.10000000000000001 -c black -o right
X -t * -n 6 -r 0.5Mb -D 40ms -o left
L -t * -s 6 -d 3 -o up
L -t * -s 6 -d 4 -o down
L -t * -s 6 -d 5 -o up
q -t * -s 2 -d 3 -a 0.5
n -t 0 -s 0 -S DLABEL -l "TCP" -L ""
n -t 0 -s 1 -S DLABEL -l "UDP" -L ""
+ -t 0.1 -s 1 -d 2 -p cbr -e 1000 -c 2 -i 0 -a 2 -x {1.0 5.1 0 ------- null}
- -t 0.1 -s 1 -d 2 -p cbr -e 1000 -c 2 -i 0 -a 2 -x {1.0 5.1 0 ------- null}
h -t 0.1 -s 1 -d 2 -p cbr -e 1000 -c 2 -i 0 -a 2 -x {1.0 5.1 -1 ------- null}
r -t 0.118 -s 1 -d 2 -p cbr -e 1000 -c 2 -i 0 -a 2 -x {1.0 5.1 0 ------- null}
d -t 0.118 -s 2 -d 3 -p cbr -e 1000 -c 2 -i 0 -a 2 -x {1.0 5.1 0 ------- null}
+ -t 0.14 -s 1 -d 2 -p cbr -e 1000 -c 2 -i 1 -a 2 -x {1.0 5.1 1 ------- null}
- -t 0.14 -s 1 -d 2 -p cbr -e 1000 -c 2 -i 1 -a 2 -x {1.0 5.1 1 ------- null}
h -t 0.14 -s 1 -d 2 -p cbr -e 1000 -c 2 -i 1 -a 2 -x {1.0 5.1 -1 ------- null}
r -t 0.158 -s 1 -d 2 -p cbr -e 1000 -c 2 -i 1 -a 2 -x {1.0 5.1 1 ------- null}
d -t 0.158 -s 2 -d 3 -p cbr -e 1000 -c 2 -i 1 -a 2 -x {1.0 5.1 1 ------- null}
+ -t 0.18 -s 1 -d 2 -p cbr -e 1000 -c 2 -i 2 -a 2 -x {1.0 5.1 2 ------- null}
- -t 0.18 -s 1 -d 2 -p cbr -e 1000 -c 2 -i 2 -a 2 -x {1.0 5.1 2 ------- null}
h -t 0.18 -s 1 -d 2 -p cbr -e 1000 -c 2 -i 2 -a 2 -x {1.0 5.1 -1 ------- null}
r -t 0.198 -s 1 -d 2 -p cbr -e 1000 -c 2 -i 2 -a 2 -x {1.0 5.1 2 ------- null}
d -t 0.198 -s 2 -d 3 -p cbr -e 1000 -c 2 -i 2 -a 2 -x {1.0 5.1 2 ------- null}
+ -t 0.22 -s 1 -d 2 -p cbr -e 1000 -c 2 -i 3 -a 2 -x {1.0 5.1 3 ------- null}
- -t 0.22 -s 1 -d 2 -p cbr -e 1000 -c 2 -i 3 -a 2 -x {1.0 5.1 3 ------- null}
h -t 0.22 -s 1 -d 2 -p cbr -e 1000 -c 2 -i 3 -a 2 -x {1.0 5.1 -1 ------- null}
r -t 0.238 -s 1 -d 2 -p cbr -e 1000 -c 2 -i 3 -a 2 -x {1.0 5.1 3 ------- null}
d -t 0.238 -s 2 -d 3 -p cbr -e 1000 -c 2 -i 3 -a 2 -x {1.0 5.1 3 ------- null}
+ -t 0.26 -s 1 -d 2 -p cbr -e 1000 -c 2 -i 4 -a 2 -x {1.0 5.1 4 ------- null}
- -t 0.26 -s 1 -d 2 -p cbr -e 1000 -c 2 -i 4 -a 2 -x {1.0 5.1 4 ------- null}
h -t 0.26 -s 1 -d 2 -p cbr -e 1000 -c 2 -i 4 -a 2 -x {1.0 5.1 -1 ------- null}
r -t 0.278 -s 1 -d 2 -p cbr -e 1000 -c 2 -i 4 -a 2 -x {1.0 5.1 4 ------- null}
d -t 0.278 -s 2 -d 3 -p cbr -e 1000 -c 2 -i 4 -a 2 -x {1.0 5.1 4 ------- null}
+ -t 0.3 -s 1 -d 2 -p cbr -e 1000 -c 2 -i 5 -a 2 -x {1.0 5.1 5 ------- null}
- -t 0.3 -s 1 -d 2 -p cbr -e 1000 -c 2 -i 5 -a 2 -x {1.0 5.1 5 ------- null}
h -t 0.3 -s 1 -d 2 -p cbr -e 1000 -c 2 -i 5 -a 2 -x {1.0 5.1 -1 ------- null}
r -t 0.318 -s 1 -d 2 -p cbr -e 1000 -c 2 -i 5 -a 2 -x {1.0 5.1 5 ------- null}
d -t 0.318 -s 2 -d 3 -p cbr -e 1000 -c 2 -i 5 -a 2 -x {1.0 5.1 5 ------- null}
+ -t 0.34 -s 1 -d 2 -p cbr -e 1000 -c 2 -i 6 -a 2 -x {1.0 5.1 6 ------- null}
- -t 0.34 -s 1 -d 2 -p cbr -e 1000 -c 2 -i 6 -a 2 -x {1.0 5.1 6 ------- null}
h -t 0.34 -s 1 -d 2 -p cbr -e 1000 -c 2 -i 6 -a 2 -x {1.0 5.1 -1 ------- null}
r -t 0.358 -s 1 -d 2 -p cbr -e 1000 -c 2 -i 6 -a 2 -x {1.0 5.1 6 ------- null}
d -t 0.358 -s 2 -d 3 -p cbr -e 1000 -c 2 -i 6 -a 2 -x {1.0 5.1 6 ------- null}
+ -t 0.38 -s 1 -d 2 -p cbr -e 1000 -c 2 -i 7 -a 2 -x {1.0 5.1 7 ------- null}
- -t 0.38 -s 1 -d 2 -p cbr -e 1000 -c 2 -i 7 -a 2 -x {1.0 5.1 7 ------- null}
h -t 0.38 -s 1 -d 2 -p cbr -e 1000 -c 2 -i 7 -a 2 -x {1.0 5.1 -1 ------- null}
r -t 0.398 -s 1 -d 2 -p cbr -e 1000 -c 2 -i 7 -a 2 -x {1.0 5.1 7 ------- null}
d -t 0.398 -s 2 -d 3 -p cbr -e 1000 -c 2 -i 7 -a 2 -x {1.0 5.1 7 ------- null}
+ -t 0.42 -s 1 -d 2 -p cbr -e 1000 -c 2 -i 8 -a 2 -x {1.0 5.1 8 ------- null}
- -t 0.42 -s 1 -d 2 -p cbr -e 1000 -c 2 -i 8 -a 2 -x {1.0 5.1 8 ------- null}
h -t 0.42 -s 1 -d 2 -p cbr -e 1000 -c 2 -i 8 -a 2 -x {1.0 5.1 -1 ------- null}
r -t 0.438 -s 1 -d 2 -p cbr -e 1000 -c 2 -i 8 -a 2 -x {1.0 5.1 8 ------- null}
d -t 0.438 -s 2 -d 3 -p cbr -e 1000 -c 2 -i 8 -a 2 -x {1.0 5.1 8 ------- null}
+ -t 0.46 -s 1 -d 2 -p cbr -e 1000 -c 2 -i 9 -a 2 -x {1.0 5.1 9 ------- null}
- -t 0.46 -s 1 -d 2 -p cbr -e 1000 -c 2 -i 9 -a 2 -x {1.0 5.1 9 ------- null}
h -t 0.46 -s 1 -d 2 -p cbr -e 1000 -c 2 -i 9 -a 2 -x {1.0 5.1 -1 ------- null}
r -t 0.478 -s 1 -d 2 -p cbr -e 1000 -c 2 -i 9 -a 2 -x {1.0 5.1 9 ------- null}
d -t 0.478 -s 2 -d 3 -p cbr -e 1000 -c 2 -i 9 -a 2 -x {1.0 5.1 9 ------- null}
+ -t 0.5 -s 1 -d 2 -p cbr -e 1000 -c 2 -i 10 -a 2 -x {1.0 5.1 10 ------- null}
- -t 0.5 -s 1 -d 2 -p cbr -e 1000 -c 2 -i 10 -a 2 -x {1.0 5.1 10 ------- null}
h -t 0.5 -s 1 -d 2 -p cbr -e 1000 -c 2 -i 10 -a 2 -x {1.0 5.1 -1 ------- null}
r -t 0.518 -s 1 -d 2 -p cbr -e 1000 -c 2 -i 10 -a 2 -x {1.0 5.1 10 ------- null}
d -t 0.518 -s 2 -d 3 -p cbr -e 1000 -c 2 -i 10 -a 2 -x {1.0 5.1 10 ------- null}
+ -t 0.54 -s 1 -d 2 -p cbr -e 1000 -c 2 -i 11 -a 2 -x {1.0 5.1 11 ------- null}
- -t 0.54 -s 1 -d 2 -p cbr -e 1000 -c 2 -i 11 -a 2 -x {1.0 5.1 11 ------- null}
h -t 0.54 -s 1 -d 2 -p cbr -e 1000 -c 2 -i 11 -a 2 -x {1.0 5.1 -1 ------- null}
r -t 0.558 -s 1 -d 2 -p cbr -e 1000 -c 2 -i 11 -a 2 -x {1.0 5.1 11 ------- null}
d -t 0.558 -s 2 -d 3 -p cbr -e 1000 -c 2 -i 11 -a 2 -x {1.0 5.1 11 ------- null}
+ -t 0.58 -s 1 -d 2 -p cbr -e 1000 -c 2 -i 12 -a 2 -x {1.0 5.1 12 ------- null}
- -t 0.58 -s 1 -d 2 -p cbr -e 1000 -c 2 -i 12 -a 2 -x {1.0 5.1 12 ------- null}
h -t 0.58 -s 1 -d 2 -p cbr -e 1000 -c 2 -i 12 -a 2 -x {1.0 5.1 -1 ------- null}
r -t 0.598 -s 1 -d 2 -p cbr -e 1000 -c 2 -i 12 -a 2 -x {1.0 5.1 12 ------- null}
d -t 0.598 -s 2 -d 3 -p cbr -e 1000 -c 2 -i 12 -a 2 -x {1.0 5.1 12 ------- null}
+ -t 0.62 -s 1 -d 2 -p cbr -e 1000 -c 2 -i 13 -a 2 -x {1.0 5.1 13 ------- null}
- -t 0.62 -s 1 -d 2 -p cbr -e 1000 -c 2 -i 13 -a 2 -x {1.0 5.1 13 ------- null}
h -t 0.62 -s 1 -d 2 -p cbr -e 1000 -c 2 -i 13 -a 2 -x {1.0 5.1 -1 ------- null}
r -t 0.638 -s 1 -d 2 -p cbr -e 1000 -c 2 -i 13 -a 2 -x {1.0 5.1 13 ------- null}
d -t 0.638 -s 2 -d 3 -p cbr -e 1000 -c 2 -i 13 -a 2 -x {1.0 5.1 13 ------- null}
+ -t 0.66 -s 1 -d 2 -p cbr -e 1000 -c 2 -i 14 -a 2 -x {1.0 5.1 14 ------- null}
- -t 0.66 -s 1 -d 2 -p cbr -e 1000 -c 2 -i 14 -a 2 -x {1.0 5.1 14 ------- null}
h -t 0.66 -s 1 -d 2 -p cbr -e 1000 -c 2 -i 14 -a 2 -x {1.0 5.1 -1 ------- null}
r -t 0.678 -s 1 -d 2 -p cbr -e 1000 -c 2 -i 14 -a 2 -x {1.0 5.1 14 ------- null}
d -t 0.678 -s 2 -d 3 -p cbr -e 1000 -c 2 -i 14 -a 2 -x {1.0 5.1 14 ------- null}
+ -t 0.7 -s 1 -d 2 -p cbr -e 1000 -c 2 -i 15 -a 2 -x {1.0 5.1 15 ------- null}
- -t 0.7 -s 1 -d 2 -p cbr -e 1000 -c 2 -i 15 -a 2 -x {1.0 5.1 15 ------- null}
h -t 0.7 -s 1 -d 2 -p cbr -e 1000 -c 2 -i 15 -a 2 -x {1.0 5.1 -1 ------- null}
r -t 0.718 -s 1 -d 2 -p cbr -e 1000 -c 2 -i 15 -a 2 -x {1.0 5.1 15 ------- null}
d -t 0.718 -s 2 -d 3 -p cbr -e 1000 -c 2 -i 15 -a 2 -x {1.0 5.1 15 ------- null}
+ -t 0.74 -s 1 -d 2 -p cbr -e 1000 -c 2 -i 16 -a 2 -x {1.0 5.1 16 ------- null}
- -t 0.74 -s 1 -d 2 -p cbr -e 1000 -c 2 -i 16 -a 2 -x {1.0 5.1 16 ------- null}
h -t 0.74 -s 1 -d 2 -p cbr -e 1000 -c 2 -i 16 -a 2 -x {1.0 5.1 -1 ------- null}
r -t 0.758 -s 1 -d 2 -p cbr -e 1000 -c 2 -i 16 -a 2 -x {1.0 5.1 16 ------- null}
d -t 0.758 -s 2 -d 3 -p cbr -e 1000 -c 2 -i 16 -a 2 -x {1.0 5.1 16 ------- null}
+ -t 0.78 -s 1 -d 2 -p cbr -e 1000 -c 2 -i 17 -a 2 -x {1.0 5.1 17 ------- null}
- -t 0.78 -s 1 -d 2 -p cbr -e 1000 -c 2 -i 17 -a 2 -x {1.0 5.1 17 ------- null}
h -t 0.78 -s 1 -d 2 -p cbr -e 1000 -c 2 -i 17 -a 2 -x {1.0 5.1 -1 ------- null}
r -t 0.798 -s 1 -d 2 -p cbr -e 1000 -c 2 -i 17 -a 2 -x {1.0 5.1 17 ------- null}
d -t 0.798 -s 2 -d 3 -p cbr -e 1000 -c 2 -i 17 -a 2 -x {1.0 5.1 17 ------- null}
+ -t 0.82 -s 1 -d 2 -p cbr -e 1000 -c 2 -i 18 -a 2 -x {1.0 5.1 18 ------- null}
- -t 0.82 -s 1 -d 2 -p cbr -e 1000 -c 2 -i 18 -a 2 -x {1.0 5.1 18 ------- null}
h -t 0.82 -s 1 -d 2 -p cbr -e 1000 -c 2 -i 18 -a 2 -x {1.0 5.1 -1 ------- null}
r -t 0.838 -s 1 -d 2 -p cbr -e 1000 -c 2 -i 18 -a 2 -x {1.0 5.1 18 ------- null}
d -t 0.838 -s 2 -d 3 -p cbr -e 1000 -c 2 -i 18 -a 2 -x {1.0 5.1 18 ------- null}
+ -t 0.86 -s 1 -d 2 -p cbr -e 1000 -c 2 -i 19 -a 2 -x {1.0 5.1 19 ------- null}
- -t 0.86 -s 1 -d 2 -p cbr -e 1000 -c 2 -i 19 -a 2 -x {1.0 5.1 19 ------- null}
h -t 0.86 -s 1 -d 2 -p cbr -e 1000 -c 2 -i 19 -a 2 -x {1.0 5.1 -1 ------- null}
r -t 0.878 -s 1 -d 2 -p cbr -e 1000 -c 2 -i 19 -a 2 -x {1.0 5.1 19 ------- null}
d -t 0.878 -s 2 -d 3 -p cbr -e 1000 -c 2 -i 19 -a 2 -x {1.0 5.1 19 ------- null}
+ -t 0.9 -s 1 -d 2 -p cbr -e 1000 -c 2 -i 20 -a 2 -x {1.0 5.1 20 ------- null}
- -t 0.9 -s 1 -d 2 -p cbr -e 1000 -c 2 -i 20 -a 2 -x {1.0 5.1 20 ------- null}
h -t 0.9 -s 1 -d 2 -p cbr -e 1000 -c 2 -i 20 -a 2 -x {1.0 5.1 -1 ------- null}
r -t 0.918 -s 1 -d 2 -p cbr -e 1000 -c 2 -i 20 -a 2 -x {1.0 5.1 20 ------- null}
d -t 0.918 -s 2 -d 3 -p cbr -e 1000 -c 2 -i 20 -a 2 -x {1.0 5.1 20 ------- null}
+ -t 0.94 -s 1 -d 2 -p cbr -e 1000 -c 2 -i 21 -a 2 -x {1.0 5.1 21 ------- null}
- -t 0.94 -s 1 -d 2 -p cbr -e 1000 -c 2 -i 21 -a 2 -x {1.0 5.1 21 ------- null}
h -t 0.94 -s 1 -d 2 -p cbr -e 1000 -c 2 -i 21 -a 2 -x {1.0 5.1 -1 ------- null}
r -t 0.958 -s 1 -d 2 -p cbr -e 1000 -c 2 -i 21 -a 2 -x {1.0 5.1 21 ------- null}
d -t 0.958 -s 2 -d 3 -p cbr -e 1000 -c 2 -i 21 -a 2 -x {1.0 5.1 21 ------- null}
+ -t 0.98 -s 1 -d 2 -p cbr -e 1000 -c 2 -i 22 -a 2 -x {1.0 5.1 22 ------- null}
- -t 0.98 -s 1 -d 2 -p cbr -e 1000 -c 2 -i 22 -a 2 -x {1.0 5.1 22 ------- null}
h -t 0.98 -s 1 -d 2 -p cbr -e 1000 -c 2 -i 22 -a 2 -x {1.0 5.1 -1 ------- null}
r -t 0.998 -s 1 -d 2 -p cbr -e 1000 -c 2 -i 22 -a 2 -x {1.0 5.1 22 ------- null}
d -t 0.998 -s 2 -d 3 -p cbr -e 1000 -c 2 -i 22 -a 2 -x {1.0 5.1 22 ------- null}
+ -t 1 -s 0 -d 2 -p tcp -e 40 -c 1 -i 23 -a 1 -x {0.0 5.0 0 ------- null}
- -t 1 -s 0 -d 2 -p tcp -e 40 -c 1 -i 23 -a 1 -x {0.0 5.0 0 ------- null}
h -t 1 -s 0 -d 2 -p tcp -e 40 -c 1 -i 23 -a 1 -x {0.0 5.0 -1 ------- null}
r -t 1.01032 -s 0 -d 2 -p tcp -e 40 -c 1 -i 23 -a 1 -x {0.0 5.0 0 ------- null}
d -t 1.01032 -s 2 -d 3 -p tcp -e 40 -c 1 -i 23 -a 1 -x {0.0 5.0 0 ------- null}
+ -t 1.02 -s 1 -d 2 -p cbr -e 1000 -c 2 -i 24 -a 2 -x {1.0 5.1 23 ------- null}
- -t 1.02 -s 1 -d 2 -p cbr -e 1000 -c 2 -i 24 -a 2 -x {1.0 5.1 23 ------- null}
h -t 1.02 -s 1 -d 2 -p cbr -e 1000 -c 2 -i 24 -a 2 -x {1.0 5.1 -1 ------- null}
r -t 1.038 -s 1 -d 2 -p cbr -e 1000 -c 2 -i 24 -a 2 -x {1.0 5.1 23 ------- null}
d -t 1.038 -s 2 -d 3 -p cbr -e 1000 -c 2 -i 24 -a 2 -x {1.0 5.1 23 ------- null}
+ -t 1.06 -s 1 -d 2 -p cbr -e 1000 -c 2 -i 25 -a 2 -x {1.0 5.1 24 ------- null}
- -t 1.06 -s 1 -d 2 -p cbr -e 1000 -c 2 -i 25 -a 2 -x {1.0 5.1 24 ------- null}
h -t 1.06 -s 1 -d 2 -p cbr -e 1000 -c 2 -i 25 -a 2 -x {1.0 5.1 -1 ------- null}
r -t 1.078 -s 1 -d 2 -p cbr -e 1000 -c 2 -i 25 -a 2 -x {1.0 5.1 24 ------- null}
d -t 1.078 -s 2 -d 3 -p cbr -e 1000 -c 2 -i 25 -a 2 -x {1.0 5.1 24 ------- null}
+ -t 1.1 -s 1 -d 2 -p cbr -e 1000 -c 2 -i 26 -a 2 -x {1.0 5.1 25 ------- null}
- -t 1.1 -s 1 -d 2 -p cbr -e 1000 -c 2 -i 26 -a 2 -x {1.0 5.1 25 ------- null}
h -t 1.1 -s 1 -d 2 -p cbr -e 1000 -c 2 -i 26 -a 2 -x {1.0 5.1 -1 ------- null}
r -t 1.118 -s 1 -d 2 -p cbr -e 1000 -c 2 -i 26 -a 2 -x {1.0 5.1 25 ------- null}
d -t 1.118 -s 2 -d 3 -p cbr -e 1000 -c 2 -i 26 -a 2 -x {1.0 5.1 25 ------- null}
+ -t 1.14 -s 1 -d 2 -p cbr -e 1000 -c 2 -i 27 -a 2 -x {1.0 5.1 26 ------- null}
- -t 1.14 -s 1 -d 2 -p cbr -e 1000 -c 2 -i 27 -a 2 -x {1.0 5.1 26 ------- null}
h -t 1.14 -s 1 -d 2 -p cbr -e 1000 -c 2 -i 27 -a 2 -x {1.0 5.1 -1 ------- null}
r -t 1.158 -s 1 -d 2 -p cbr -e 1000 -c 2 -i 27 -a 2 -x {1.0 5.1 26 ------- null}
d -t 1.158 -s 2 -d 3 -p cbr -e 1000 -c 2 -i 27 -a 2 -x {1.0 5.1 26 ------- null}
+ -t 1.18 -s 1 -d 2 -p cbr -e 1000 -c 2 -i 28 -a 2 -x {1.0 5.1 27 ------- null}
- -t 1.18 -s 1 -d 2 -p cbr -e 1000 -c 2 -i 28 -a 2 -x {1.0 5.1 27 ------- null}
h -t 1.18 -s 1 -d 2 -p cbr -e 1000 -c 2 -i 28 -a 2 -x {1.0 5.1 -1 ------- null}
r -t 1.198 -s 1 -d 2 -p cbr -e 1000 -c 2 -i 28 -a 2 -x {1.0 5.1 27 ------- null}
d -t 1.198 -s 2 -d 3 -p cbr -e 1000 -c 2 -i 28 -a 2 -x {1.0 5.1 27 ------- null}
+ -t 1.22 -s 1 -d 2 -p cbr -e 1000 -c 2 -i 29 -a 2 -x {1.0 5.1 28 ------- null}
- -t 1.22 -s 1 -d 2 -p cbr -e 1000 -c 2 -i 29 -a 2 -x {1.0 5.1 28 ------- null}
h -t 1.22 -s 1 -d 2 -p cbr -e 1000 -c 2 -i 29 -a 2 -x {1.0 5.1 -1 ------- null}
r -t 1.238 -s 1 -d 2 -p cbr -e 1000 -c 2 -i 29 -a 2 -x {1.0 5.1 28 ------- null}
d -t 1.238 -s 2 -d 3 -p cbr -e 1000 -c 2 -i 29 -a 2 -x {1.0 5.1 28 ------- null}
+ -t 1.26 -s 1 -d 2 -p cbr -e 1000 -c 2 -i 30 -a 2 -x {1.0 5.1 29 ------- null}
- -t 1.26 -s 1 -d 2 -p cbr -e 1000 -c 2 -i 30 -a 2 -x {1.0 5.1 29 ------- null}
h -t 1.26 -s 1 -d 2 -p cbr -e 1000 -c 2 -i 30 -a 2 -x {1.0 5.1 -1 ------- null}
r -t 1.278 -s 1 -d 2 -p cbr -e 1000 -c 2 -i 30 -a 2 -x {1.0 5.1 29 ------- null}
d -t 1.278 -s 2 -d 3 -p cbr -e 1000 -c 2 -i 30 -a 2 -x {1.0 5.1 29 ------- null}
+ -t 1.3 -s 1 -d 2 -p cbr -e 1000 -c 2 -i 31 -a 2 -x {1.0 5.1 30 ------- null}
- -t 1.3 -s 1 -d 2 -p cbr -e 1000 -c 2 -i 31 -a 2 -x {1.0 5.1 30 ------- null}
h -t 1.3 -s 1 -d 2 -p cbr -e 1000 -c 2 -i 31 -a 2 -x {1.0 5.1 -1 ------- null}
r -t 1.318 -s 1 -d 2 -p cbr -e 1000 -c 2 -i 31 -a 2 -x {1.0 5.1 30 ------- null}
d -t 1.318 -s 2 -d 3 -p cbr -e 1000 -c 2 -i 31 -a 2 -x {1.0 5.1 30 ------- null}
+ -t 1.34 -s 1 -d 2 -p cbr -e 1000 -c 2 -i 32 -a 2 -x {1.0 5.1 31 ------- null}
- -t 1.34 -s 1 -d 2 -p cbr -e 1000 -c 2 -i 32 -a 2 -x {1.0 5.1 31 ------- null}
h -t 1.34 -s 1 -d 2 -p cbr -e 1000 -c 2 -i 32 -a 2 -x {1.0 5.1 -1 ------- null}
r -t 1.358 -s 1 -d 2 -p cbr -e 1000 -c 2 -i 32 -a 2 -x {1.0 5.1 31 ------- null}
+ -t 1.358 -s 2 -d 3 -p cbr -e 1000 -c 2 -i 32 -a 2 -x {1.0 5.1 31 ------- null}
- -t 1.358 -s 2 -d 3 -p cbr -e 1000 -c 2 -i 32 -a 2 -x {1.0 5.1 31 ------- null}
h -t 1.358 -s 2 -d 3 -p cbr -e 1000 -c 2 -i 32 -a 2 -x {1.0 5.1 -1 ------- null}
+ -t 1.38 -s 1 -d 2 -p cbr -e 1000 -c 2 -i 33 -a 2 -x {1.0 5.1 32 ------- null}
- -t 1.38 -s 1 -d 2 -p cbr -e 1000 -c 2 -i 33 -a 2 -x {1.0 5.1 32 ------- null}
h -t 1.38 -s 1 -d 2 -p cbr -e 1000 -c 2 -i 33 -a 2 -x {1.0 5.1 -1 ------- null}
r -t 1.398 -s 1 -d 2 -p cbr -e 1000 -c 2 -i 33 -a 2 -x {1.0 5.1 32 ------- null}
d -t 1.398 -s 2 -d 3 -p cbr -e 1000 -c 2 -i 33 -a 2 -x {1.0 5.1 32 ------- null}
+ -t 1.42 -s 1 -d 2 -p cbr -e 1000 -c 2 -i 34 -a 2 -x {1.0 5.1 33 ------- null}
- -t 1.42 -s 1 -d 2 -p cbr -e 1000 -c 2 -i 34 -a 2 -x {1.0 5.1 33 ------- null}
h -t 1.42 -s 1 -d 2 -p cbr -e 1000 -c 2 -i 34 -a 2 -x {1.0 5.1 -1 ------- null}
r -t 1.438 -s 1 -d 2 -p cbr -e 1000 -c 2 -i 34 -a 2 -x {1.0 5.1 33 ------- null}
d -t 1.438 -s 2 -d 3 -p cbr -e 1000 -c 2 -i 34 -a 2 -x {1.0 5.1 33 ------- null}
+ -t 1.46 -s 1 -d 2 -p cbr -e 1000 -c 2 -i 35 -a 2 -x {1.0 5.1 34 ------- null}
- -t 1.46 -s 1 -d 2 -p cbr -e 1000 -c 2 -i 35 -a 2 -x {1.0 5.1 34 ------- null}
h -t 1.46 -s 1 -d 2 -p cbr -e 1000 -c 2 -i 35 -a 2 -x {1.0 5.1 -1 ------- null}
r -t 1.478 -s 1 -d 2 -p cbr -e 1000 -c 2 -i 35 -a 2 -x {1.0 5.1 34 ------- null}
d -t 1.478 -s 2 -d 3 -p cbr -e 1000 -c 2 -i 35 -a 2 -x {1.0 5.1 34 ------- null}
r -t 1.48466666666667 -s 2 -d 3 -p cbr -e 1000 -c 2 -i 32 -a 2 -x {1.0 5.1 31 ------- null}
h -t 1.48466666666667 -s 3 -d 6 -p cbr -e 1000 -c 2 -i 32 -a 2 -x {1.0 5.1 31 ------- null}
+ -t 1.5 -s 1 -d 2 -p cbr -e 1000 -c 2 -i 36 -a 2 -x {1.0 5.1 35 ------- null}
- -t 1.5 -s 1 -d 2 -p cbr -e 1000 -c 2 -i 36 -a 2 -x {1.0 5.1 35 ------- null}
h -t 1.5 -s 1 -d 2 -p cbr -e 1000 -c 2 -i 36 -a 2 -x {1.0 5.1 -1 ------- null}
r -t 1.518 -s 1 -d 2 -p cbr -e 1000 -c 2 -i 36 -a 2 -x {1.0 5.1 35 ------- null}
d -t 1.518 -s 2 -d 3 -p cbr -e 1000 -c 2 -i 36 -a 2 -x {1.0 5.1 35 ------- null}
+ -t 1.52466666666667 -s 3 -d 6 -p cbr -e 1000 -c 2 -i 32 -a 2 -x {1.0 5.1 31 ------- null}
- -t 1.52466666666667 -s 3 -d 6 -p cbr -e 1000 -c 2 -i 32 -a 2 -x {1.0 5.1 31 ------- null}
h -t 1.52466666666667 -s 3 -d 6 -p cbr -e 1000 -c 2 -i 32 -a 2 -x {1.0 5.1 -1 ------- null}
d -t 1.52467066666667 -s 4 -d 6 -p cbr -e 1000 -c 2 -i 32 -a 2 -x {1.0 5.1 31 ------- null}
+ -t 1.54 -s 1 -d 2 -p cbr -e 1000 -c 2 -i 37 -a 2 -x {1.0 5.1 36 ------- null}
- -t 1.54 -s 1 -d 2 -p cbr -e 1000 -c 2 -i 37 -a 2 -x {1.0 5.1 36 ------- null}
h -t 1.54 -s 1 -d 2 -p cbr -e 1000 -c 2 -i 37 -a 2 -x {1.0 5.1 -1 ------- null}
r -t 1.558 -s 1 -d 2 -p cbr -e 1000 -c 2 -i 37 -a 2 -x {1.0 5.1 36 ------- null}
d -t 1.558 -s 2 -d 3 -p cbr -e 1000 -c 2 -i 37 -a 2 -x {1.0 5.1 36 ------- null}
r -t 1.56467066666667 -s 6 -d 5 -p cbr -e 1000 -c 2 -i 32 -a 2 -x {1.0 5.1 31 ------- null}
+ -t 1.58 -s 1 -d 2 -p cbr -e 1000 -c 2 -i 38 -a 2 -x {1.0 5.1 37 ------- null}
- -t 1.58 -s 1 -d 2 -p cbr -e 1000 -c 2 -i 38 -a 2 -x {1.0 5.1 37 ------- null}
h -t 1.58 -s 1 -d 2 -p cbr -e 1000 -c 2 -i 38 -a 2 -x {1.0 5.1 -1 ------- null}
r -t 1.598 -s 1 -d 2 -p cbr -e 1000 -c 2 -i 38 -a 2 -x {1.0 5.1 37 ------- null}
+ -t 1.598 -s 2 -d 3 -p cbr -e 1000 -c 2 -i 38 -a 2 -x {1.0 5.1 37 ------- null}
- -t 1.598 -s 2 -d 3 -p cbr -e 1000 -c 2 -i 38 -a 2 -x {1.0 5.1 37 ------- null}
h -t 1.598 -s 2 -d 3 -p cbr -e 1000 -c 2 -i 38 -a 2 -x {1.0 5.1 -1 ------- null}
+ -t 1.62 -s 1 -d 2 -p cbr -e 1000 -c 2 -i 39 -a 2 -x {1.0 5.1 38 ------- null}
- -t 1.62 -s 1 -d 2 -p cbr -e 1000 -c 2 -i 39 -a 2 -x {1.0 5.1 38 ------- null}
h -t 1.62 -s 1 -d 2 -p cbr -e 1000 -c 2 -i 39 -a 2 -x {1.0 5.1 -1 ------- null}
r -t 1.638 -s 1 -d 2 -p cbr -e 1000 -c 2 -i 39 -a 2 -x {1.0 5.1 38 ------- null}
d -t 1.638 -s 2 -d 3 -p cbr -e 1000 -c 2 -i 39 -a 2 -x {1.0 5.1 38 ------- null}
+ -t 1.66 -s 1 -d 2 -p cbr -e 1000 -c 2 -i 40 -a 2 -x {1.0 5.1 39 ------- null}
- -t 1.66 -s 1 -d 2 -p cbr -e 1000 -c 2 -i 40 -a 2 -x {1.0 5.1 39 ------- null}
h -t 1.66 -s 1 -d 2 -p cbr -e 1000 -c 2 -i 40 -a 2 -x {1.0 5.1 -1 ------- null}
r -t 1.678 -s 1 -d 2 -p cbr -e 1000 -c 2 -i 40 -a 2 -x {1.0 5.1 39 ------- null}
d -t 1.678 -s 2 -d 3 -p cbr -e 1000 -c 2 -i 40 -a 2 -x {1.0 5.1 39 ------- null}
+ -t 1.7 -s 1 -d 2 -p cbr -e 1000 -c 2 -i 41 -a 2 -x {1.0 5.1 40 ------- null}
- -t 1.7 -s 1 -d 2 -p cbr -e 1000 -c 2 -i 41 -a 2 -x {1.0 5.1 40 ------- null}
h -t 1.7 -s 1 -d 2 -p cbr -e 1000 -c 2 -i 41 -a 2 -x {1.0 5.1 -1 ------- null}
r -t 1.718 -s 1 -d 2 -p cbr -e 1000 -c 2 -i 41 -a 2 -x {1.0 5.1 40 ------- null}
d -t 1.718 -s 2 -d 3 -p cbr -e 1000 -c 2 -i 41 -a 2 -x {1.0 5.1 40 ------- null}
r -t 1.72466666666667 -s 2 -d 3 -p cbr -e 1000 -c 2 -i 38 -a 2 -x {1.0 5.1 37 ------- null}
h -t 1.72466666666667 -s 3 -d 6 -p cbr -e 1000 -c 2 -i 38 -a 2 -x {1.0 5.1 37 ------- null}
+ -t 1.74 -s 1 -d 2 -p cbr -e 1000 -c 2 -i 42 -a 2 -x {1.0 5.1 41 ------- null}
- -t 1.74 -s 1 -d 2 -p cbr -e 1000 -c 2 -i 42 -a 2 -x {1.0 5.1 41 ------- null}
h -t 1.74 -s 1 -d 2 -p cbr -e 1000 -c 2 -i 42 -a 2 -x {1.0 5.1 -1 ------- null}
r -t 1.758 -s 1 -d 2 -p cbr -e 1000 -c 2 -i 42 -a 2 -x {1.0 5.1 41 ------- null}
d -t 1.758 -s 2 -d 3 -p cbr -e 1000 -c 2 -i 42 -a 2 -x {1.0 5.1 41 ------- null}
+ -t 1.76466666666667 -s 3 -d 6 -p cbr -e 1000 -c 2 -i 38 -a 2 -x {1.0 5.1 37 ------- null}
- -t 1.76466666666667 -s 3 -d 6 -p cbr -e 1000 -c 2 -i 38 -a 2 -x {1.0 5.1 37 ------- null}
h -t 1.76466666666667 -s 3 -d 6 -p cbr -e 1000 -c 2 -i 38 -a 2 -x {1.0 5.1 -1 ------- null}
d -t 1.76467066666667 -s 4 -d 6 -p cbr -e 1000 -c 2 -i 38 -a 2 -x {1.0 5.1 37 ------- null}
+ -t 1.78 -s 1 -d 2 -p cbr -e 1000 -c 2 -i 43 -a 2 -x {1.0 5.1 42 ------- null}
- -t 1.78 -s 1 -d 2 -p cbr -e 1000 -c 2 -i 43 -a 2 -x {1.0 5.1 42 ------- null}
h -t 1.78 -s 1 -d 2 -p cbr -e 1000 -c 2 -i 43 -a 2 -x {1.0 5.1 -1 ------- null}
r -t 1.798 -s 1 -d 2 -p cbr -e 1000 -c 2 -i 43 -a 2 -x {1.0 5.1 42 ------- null}
d -t 1.798 -s 2 -d 3 -p cbr -e 1000 -c 2 -i 43 -a 2 -x {1.0 5.1 42 ------- null}
r -t 1.80467066666667 -s 6 -d 5 -p cbr -e 1000 -c 2 -i 38 -a 2 -x {1.0 5.1 37 ------- null}
+ -t 1.82 -s 1 -d 2 -p cbr -e 1000 -c 2 -i 44 -a 2 -x {1.0 5.1 43 ------- null}
- -t 1.82 -s 1 -d 2 -p cbr -e 1000 -c 2 -i 44 -a 2 -x {1.0 5.1 43 ------- null}
h -t 1.82 -s 1 -d 2 -p cbr -e 1000 -c 2 -i 44 -a 2 -x {1.0 5.1 -1 ------- null}
r -t 1.838 -s 1 -d 2 -p cbr -e 1000 -c 2 -i 44 -a 2 -x {1.0 5.1 43 ------- null}
d -t 1.838 -s 2 -d 3 -p cbr -e 1000 -c 2 -i 44 -a 2 -x {1.0 5.1 43 ------- null}
+ -t 1.86 -s 1 -d 2 -p cbr -e 1000 -c 2 -i 45 -a 2 -x {1.0 5.1 44 ------- null}
- -t 1.86 -s 1 -d 2 -p cbr -e 1000 -c 2 -i 45 -a 2 -x {1.0 5.1 44 ------- null}
h -t 1.86 -s 1 -d 2 -p cbr -e 1000 -c 2 -i 45 -a 2 -x {1.0 5.1 -1 ------- null}
r -t 1.878 -s 1 -d 2 -p cbr -e 1000 -c 2 -i 45 -a 2 -x {1.0 5.1 44 ------- null}
d -t 1.878 -s 2 -d 3 -p cbr -e 1000 -c 2 -i 45 -a 2 -x {1.0 5.1 44 ------- null}
+ -t 1.9 -s 1 -d 2 -p cbr -e 1000 -c 2 -i 46 -a 2 -x {1.0 5.1 45 ------- null}
- -t 1.9 -s 1 -d 2 -p cbr -e 1000 -c 2 -i 46 -a 2 -x {1.0 5.1 45 ------- null}
h -t 1.9 -s 1 -d 2 -p cbr -e 1000 -c 2 -i 46 -a 2 -x {1.0 5.1 -1 ------- null}
r -t 1.918 -s 1 -d 2 -p cbr -e 1000 -c 2 -i 46 -a 2 -x {1.0 5.1 45 ------- null}
d -t 1.918 -s 2 -d 3 -p cbr -e 1000 -c 2 -i 46 -a 2 -x {1.0 5.1 45 ------- null}
+ -t 1.94 -s 1 -d 2 -p cbr -e 1000 -c 2 -i 47 -a 2 -x {1.0 5.1 46 ------- null}
- -t 1.94 -s 1 -d 2 -p cbr -e 1000 -c 2 -i 47 -a 2 -x {1.0 5.1 46 ------- null}
h -t 1.94 -s 1 -d 2 -p cbr -e 1000 -c 2 -i 47 -a 2 -x {1.0 5.1 -1 ------- null}
r -t 1.958 -s 1 -d 2 -p cbr -e 1000 -c 2 -i 47 -a 2 -x {1.0 5.1 46 ------- null}
d -t 1.958 -s 2 -d 3 -p cbr -e 1000 -c 2 -i 47 -a 2 -x {1.0 5.1 46 ------- null}
+ -t 1.98 -s 1 -d 2 -p cbr -e 1000 -c 2 -i 48 -a 2 -x {1.0 5.1 47 ------- null}
- -t 1.98 -s 1 -d 2 -p cbr -e 1000 -c 2 -i 48 -a 2 -x {1.0 5.1 47 ------- null}
h -t 1.98 -s 1 -d 2 -p cbr -e 1000 -c 2 -i 48 -a 2 -x {1.0 5.1 -1 ------- null}
r -t 1.998 -s 1 -d 2 -p cbr -e 1000 -c 2 -i 48 -a 2 -x {1.0 5.1 47 ------- null}
d -t 1.998 -s 2 -d 3 -p cbr -e 1000 -c 2 -i 48 -a 2 -x {1.0 5.1 47 ------- null}
+ -t 2.02 -s 1 -d 2 -p cbr -e 1000 -c 2 -i 49 -a 2 -x {1.0 5.1 48 ------- null}
- -t 2.02 -s 1 -d 2 -p cbr -e 1000 -c 2 -i 49 -a 2 -x {1.0 5.1 48 ------- null}
h -t 2.02 -s 1 -d 2 -p cbr -e 1000 -c 2 -i 49 -a 2 -x {1.0 5.1 -1 ------- null}
r -t 2.038 -s 1 -d 2 -p cbr -e 1000 -c 2 -i 49 -a 2 -x {1.0 5.1 48 ------- null}
d -t 2.038 -s 2 -d 3 -p cbr -e 1000 -c 2 -i 49 -a 2 -x {1.0 5.1 48 ------- null}
+ -t 2.06 -s 1 -d 2 -p cbr -e 1000 -c 2 -i 50 -a 2 -x {1.0 5.1 49 ------- null}
- -t 2.06 -s 1 -d 2 -p cbr -e 1000 -c 2 -i 50 -a 2 -x {1.0 5.1 49 ------- null}
h -t 2.06 -s 1 -d 2 -p cbr -e 1000 -c 2 -i 50 -a 2 -x {1.0 5.1 -1 ------- null}
r -t 2.078 -s 1 -d 2 -p cbr -e 1000 -c 2 -i 50 -a 2 -x {1.0 5.1 49 ------- null}
d -t 2.078 -s 2 -d 3 -p cbr -e 1000 -c 2 -i 50 -a 2 -x {1.0 5.1 49 ------- null}
+ -t 2.1 -s 1 -d 2 -p cbr -e 1000 -c 2 -i 51 -a 2 -x {1.0 5.1 50 ------- null}
- -t 2.1 -s 1 -d 2 -p cbr -e 1000 -c 2 -i 51 -a 2 -x {1.0 5.1 50 ------- null}
h -t 2.1 -s 1 -d 2 -p cbr -e 1000 -c 2 -i 51 -a 2 -x {1.0 5.1 -1 ------- null}
r -t 2.118 -s 1 -d 2 -p cbr -e 1000 -c 2 -i 51 -a 2 -x {1.0 5.1 50 ------- null}
d -t 2.118 -s 2 -d 3 -p cbr -e 1000 -c 2 -i 51 -a 2 -x {1.0 5.1 50 ------- null}
+ -t 2.14 -s 1 -d 2 -p cbr -e 1000 -c 2 -i 52 -a 2 -x {1.0 5.1 51 ------- null}
- -t 2.14 -s 1 -d 2 -p cbr -e 1000 -c 2 -i 52 -a 2 -x {1.0 5.1 51 ------- null}
h -t 2.14 -s 1 -d 2 -p cbr -e 1000 -c 2 -i 52 -a 2 -x {1.0 5.1 -1 ------- null}
r -t 2.158 -s 1 -d 2 -p cbr -e 1000 -c 2 -i 52 -a 2 -x {1.0 5.1 51 ------- null}
d -t 2.158 -s 2 -d 3 -p cbr -e 1000 -c 2 -i 52 -a 2 -x {1.0 5.1 51 ------- null}
+ -t 2.18 -s 1 -d 2 -p cbr -e 1000 -c 2 -i 53 -a 2 -x {1.0 5.1 52 ------- null}
- -t 2.18 -s 1 -d 2 -p cbr -e 1000 -c 2 -i 53 -a 2 -x {1.0 5.1 52 ------- null}
h -t 2.18 -s 1 -d 2 -p cbr -e 1000 -c 2 -i 53 -a 2 -x {1.0 5.1 -1 ------- null}
r -t 2.198 -s 1 -d 2 -p cbr -e 1000 -c 2 -i 53 -a 2 -x {1.0 5.1 52 ------- null}
d -t 2.198 -s 2 -d 3 -p cbr -e 1000 -c 2 -i 53 -a 2 -x {1.0 5.1 52 ------- null}
+ -t 2.22 -s 1 -d 2 -p cbr -e 1000 -c 2 -i 54 -a 2 -x {1.0 5.1 53 ------- null}
- -t 2.22 -s 1 -d 2 -p cbr -e 1000 -c 2 -i 54 -a 2 -x {1.0 5.1 53 ------- null}
h -t 2.22 -s 1 -d 2 -p cbr -e 1000 -c 2 -i 54 -a 2 -x {1.0 5.1 -1 ------- null}
r -t 2.238 -s 1 -d 2 -p cbr -e 1000 -c 2 -i 54 -a 2 -x {1.0 5.1 53 ------- null}
d -t 2.238 -s 2 -d 3 -p cbr -e 1000 -c 2 -i 54 -a 2 -x {1.0 5.1 53 ------- null}
+ -t 2.26 -s 1 -d 2 -p cbr -e 1000 -c 2 -i 55 -a 2 -x {1.0 5.1 54 ------- null}
- -t 2.26 -s 1 -d 2 -p cbr -e 1000 -c 2 -i 55 -a 2 -x {1.0 5.1 54 ------- null}
h -t 2.26 -s 1 -d 2 -p cbr -e 1000 -c 2 -i 55 -a 2 -x {1.0 5.1 -1 ------- null}
r -t 2.278 -s 1 -d 2 -p cbr -e 1000 -c 2 -i 55 -a 2 -x {1.0 5.1 54 ------- null}
d -t 2.278 -s 2 -d 3 -p cbr -e 1000 -c 2 -i 55 -a 2 -x {1.0 5.1 54 ------- null}
+ -t 2.3 -s 1 -d 2 -p cbr -e 1000 -c 2 -i 56 -a 2 -x {1.0 5.1 55 ------- null}
- -t 2.3 -s 1 -d 2 -p cbr -e 1000 -c 2 -i 56 -a 2 -x {1.0 5.1 55 ------- null}
h -t 2.3 -s 1 -d 2 -p cbr -e 1000 -c 2 -i 56 -a 2 -x {1.0 5.1 -1 ------- null}
r -t 2.318 -s 1 -d 2 -p cbr -e 1000 -c 2 -i 56 -a 2 -x {1.0 5.1 55 ------- null}
d -t 2.318 -s 2 -d 3 -p cbr -e 1000 -c 2 -i 56 -a 2 -x {1.0 5.1 55 ------- null}
+ -t 2.34 -s 1 -d 2 -p cbr -e 1000 -c 2 -i 57 -a 2 -x {1.0 5.1 56 ------- null}
- -t 2.34 -s 1 -d 2 -p cbr -e 1000 -c 2 -i 57 -a 2 -x {1.0 5.1 56 ------- null}
h -t 2.34 -s 1 -d 2 -p cbr -e 1000 -c 2 -i 57 -a 2 -x {1.0 5.1 -1 ------- null}
r -t 2.358 -s 1 -d 2 -p cbr -e 1000 -c 2 -i 57 -a 2 -x {1.0 5.1 56 ------- null}
d -t 2.358 -s 2 -d 3 -p cbr -e 1000 -c 2 -i 57 -a 2 -x {1.0 5.1 56 ------- null}
+ -t 2.38 -s 1 -d 2 -p cbr -e 1000 -c 2 -i 58 -a 2 -x {1.0 5.1 57 ------- null}
- -t 2.38 -s 1 -d 2 -p cbr -e 1000 -c 2 -i 58 -a 2 -x {1.0 5.1 57 ------- null}
h -t 2.38 -s 1 -d 2 -p cbr -e 1000 -c 2 -i 58 -a 2 -x {1.0 5.1 -1 ------- null}
r -t 2.398 -s 1 -d 2 -p cbr -e 1000 -c 2 -i 58 -a 2 -x {1.0 5.1 57 ------- null}
+ -t 2.398 -s 2 -d 3 -p cbr -e 1000 -c 2 -i 58 -a 2 -x {1.0 5.1 57 ------- null}
- -t 2.398 -s 2 -d 3 -p cbr -e 1000 -c 2 -i 58 -a 2 -x {1.0 5.1 57 ------- null}
h -t 2.398 -s 2 -d 3 -p cbr -e 1000 -c 2 -i 58 -a 2 -x {1.0 5.1 -1 ------- null}
+ -t 2.42 -s 1 -d 2 -p cbr -e 1000 -c 2 -i 59 -a 2 -x {1.0 5.1 58 ------- null}
- -t 2.42 -s 1 -d 2 -p cbr -e 1000 -c 2 -i 59 -a 2 -x {1.0 5.1 58 ------- null}
h -t 2.42 -s 1 -d 2 -p cbr -e 1000 -c 2 -i 59 -a 2 -x {1.0 5.1 -1 ------- null}
r -t 2.438 -s 1 -d 2 -p cbr -e 1000 -c 2 -i 59 -a 2 -x {1.0 5.1 58 ------- null}
d -t 2.438 -s 2 -d 3 -p cbr -e 1000 -c 2 -i 59 -a 2 -x {1.0 5.1 58 ------- null}
+ -t 2.46 -s 1 -d 2 -p cbr -e 1000 -c 2 -i 60 -a 2 -x {1.0 5.1 59 ------- null}
- -t 2.46 -s 1 -d 2 -p cbr -e 1000 -c 2 -i 60 -a 2 -x {1.0 5.1 59 ------- null}
h -t 2.46 -s 1 -d 2 -p cbr -e 1000 -c 2 -i 60 -a 2 -x {1.0 5.1 -1 ------- null}
r -t 2.478 -s 1 -d 2 -p cbr -e 1000 -c 2 -i 60 -a 2 -x {1.0 5.1 59 ------- null}
d -t 2.478 -s 2 -d 3 -p cbr -e 1000 -c 2 -i 60 -a 2 -x {1.0 5.1 59 ------- null}
+ -t 2.5 -s 1 -d 2 -p cbr -e 1000 -c 2 -i 61 -a 2 -x {1.0 5.1 60 ------- null}
- -t 2.5 -s 1 -d 2 -p cbr -e 1000 -c 2 -i 61 -a 2 -x {1.0 5.1 60 ------- null}
h -t 2.5 -s 1 -d 2 -p cbr -e 1000 -c 2 -i 61 -a 2 -x {1.0 5.1 -1 ------- null}
r -t 2.518 -s 1 -d 2 -p cbr -e 1000 -c 2 -i 61 -a 2 -x {1.0 5.1 60 ------- null}
d -t 2.518 -s 2 -d 3 -p cbr -e 1000 -c 2 -i 61 -a 2 -x {1.0 5.1 60 ------- null}
r -t 2.52466666666667 -s 2 -d 3 -p cbr -e 1000 -c 2 -i 58 -a 2 -x {1.0 5.1 57 ------- null}
h -t 2.52466666666667 -s 3 -d 6 -p cbr -e 1000 -c 2 -i 58 -a 2 -x {1.0 5.1 57 ------- null}
+ -t 2.54 -s 1 -d 2 -p cbr -e 1000 -c 2 -i 62 -a 2 -x {1.0 5.1 61 ------- null}
- -t 2.54 -s 1 -d 2 -p cbr -e 1000 -c 2 -i 62 -a 2 -x {1.0 5.1 61 ------- null}
h -t 2.54 -s 1 -d 2 -p cbr -e 1000 -c 2 -i 62 -a 2 -x {1.0 5.1 -1 ------- null}
r -t 2.558 -s 1 -d 2 -p cbr -e 1000 -c 2 -i 62 -a 2 -x {1.0 5.1 61 ------- null}
d -t 2.558 -s 2 -d 3 -p cbr -e 1000 -c 2 -i 62 -a 2 -x {1.0 5.1 61 ------- null}
+ -t 2.56466666666667 -s 3 -d 6 -p cbr -e 1000 -c 2 -i 58 -a 2 -x {1.0 5.1 57 ------- null}
- -t 2.56466666666667 -s 3 -d 6 -p cbr -e 1000 -c 2 -i 58 -a 2 -x {1.0 5.1 57 ------- null}
h -t 2.56466666666667 -s 3 -d 6 -p cbr -e 1000 -c 2 -i 58 -a 2 -x {1.0 5.1 -1 ------- null}
d -t 2.56467066666667 -s 4 -d 6 -p cbr -e 1000 -c 2 -i 58 -a 2 -x {1.0 5.1 57 ------- null}
+ -t 2.58 -s 1 -d 2 -p cbr -e 1000 -c 2 -i 63 -a 2 -x {1.0 5.1 62 ------- null}
- -t 2.58 -s 1 -d 2 -p cbr -e 1000 -c 2 -i 63 -a 2 -x {1.0 5.1 62 ------- null}
h -t 2.58 -s 1 -d 2 -p cbr -e 1000 -c 2 -i 63 -a 2 -x {1.0 5.1 -1 ------- null}
r -t 2.598 -s 1 -d 2 -p cbr -e 1000 -c 2 -i 63 -a 2 -x {1.0 5.1 62 ------- null}
+ -t 2.598 -s 2 -d 3 -p cbr -e 1000 -c 2 -i 63 -a 2 -x {1.0 5.1 62 ------- null}
- -t 2.598 -s 2 -d 3 -p cbr -e 1000 -c 2 -i 63 -a 2 -x {1.0 5.1 62 ------- null}
h -t 2.598 -s 2 -d 3 -p cbr -e 1000 -c 2 -i 63 -a 2 -x {1.0 5.1 -1 ------- null}
r -t 2.60467066666667 -s 6 -d 5 -p cbr -e 1000 -c 2 -i 58 -a 2 -x {1.0 5.1 57 ------- null}
+ -t 2.62 -s 1 -d 2 -p cbr -e 1000 -c 2 -i 64 -a 2 -x {1.0 5.1 63 ------- null}
- -t 2.62 -s 1 -d 2 -p cbr -e 1000 -c 2 -i 64 -a 2 -x {1.0 5.1 63 ------- null}
h -t 2.62 -s 1 -d 2 -p cbr -e 1000 -c 2 -i 64 -a 2 -x {1.0 5.1 -1 ------- null}
r -t 2.638 -s 1 -d 2 -p cbr -e 1000 -c 2 -i 64 -a 2 -x {1.0 5.1 63 ------- null}
d -t 2.638 -s 2 -d 3 -p cbr -e 1000 -c 2 -i 64 -a 2 -x {1.0 5.1 63 ------- null}
+ -t 2.66 -s 1 -d 2 -p cbr -e 1000 -c 2 -i 65 -a 2 -x {1.0 5.1 64 ------- null}
- -t 2.66 -s 1 -d 2 -p cbr -e 1000 -c 2 -i 65 -a 2 -x {1.0 5.1 64 ------- null}
h -t 2.66 -s 1 -d 2 -p cbr -e 1000 -c 2 -i 65 -a 2 -x {1.0 5.1 -1 ------- null}
r -t 2.678 -s 1 -d 2 -p cbr -e 1000 -c 2 -i 65 -a 2 -x {1.0 5.1 64 ------- null}
d -t 2.678 -s 2 -d 3 -p cbr -e 1000 -c 2 -i 65 -a 2 -x {1.0 5.1 64 ------- null}
+ -t 2.7 -s 1 -d 2 -p cbr -e 1000 -c 2 -i 66 -a 2 -x {1.0 5.1 65 ------- null}
- -t 2.7 -s 1 -d 2 -p cbr -e 1000 -c 2 -i 66 -a 2 -x {1.0 5.1 65 ------- null}