+ 0.1 1 2 cbr 1000 ------- 2 1.0 5.1 0 0
- 0.1 1 2 cbr 1000 ------- 2 1.0 5.1 0 0
r 0.118 1 2 cbr 1000 ------- 2 1.0 5.1 0 0
d 0.118 2 3 cbr 1000 ------- 2 1.0 5.1 0 0
+ 0.14 1 2 cbr 1000 ------- 2 1.0 5.1 1 1
- 0.14 1 2 cbr 1000 ------- 2 1.0 5.1 1 1
r 0.158 1 2 cbr 1000 ------- 2 1.0 5.1 1 1
d 0.158 2 3 cbr 1000 ------- 2 1.0 5.1 1 1
+ 0.18 1 2 cbr 1000 ------- 2 1.0 5.1 2 2
- 0.18 1 2 cbr 1000 ------- 2 1.0 5.1 2 2
r 0.198 1 2 cbr 1000 ------- 2 1.0 5.1 2 2
d 0.198 2 3 cbr 1000 ------- 2 1.0 5.1 2 2
+ 0.22 1 2 cbr 1000 ------- 2 1.0 5.1 3 3
- 0.22 1 2 cbr 1000 ------- 2 1.0 5.1 3 3
r 0.238 1 2 cbr 1000 ------- 2 1.0 5.1 3 3
d 0.238 2 3 cbr 1000 ------- 2 1.0 5.1 3 3
+ 0.26 1 2 cbr 1000 ------- 2 1.0 5.1 4 4
- 0.26 1 2 cbr 1000 ------- 2 1.0 5.1 4 4
r 0.278 1 2 cbr 1000 ------- 2 1.0 5.1 4 4
d 0.278 2 3 cbr 1000 ------- 2 1.0 5.1 4 4
+ 0.3 1 2 cbr 1000 ------- 2 1.0 5.1 5 5
- 0.3 1 2 cbr 1000 ------- 2 1.0 5.1 5 5
r 0.318 1 2 cbr 1000 ------- 2 1.0 5.1 5 5
d 0.318 2 3 cbr 1000 ------- 2 1.0 5.1 5 5
+ 0.34 1 2 cbr 1000 ------- 2 1.0 5.1 6 6
- 0.34 1 2 cbr 1000 ------- 2 1.0 5.1 6 6
r 0.358 1 2 cbr 1000 ------- 2 1.0 5.1 6 6
d 0.358 2 3 cbr 1000 ------- 2 1.0 5.1 6 6
+ 0.38 1 2 cbr 1000 ------- 2 1.0 5.1 7 7
- 0.38 1 2 cbr 1000 ------- 2 1.0 5.1 7 7
r 0.398 1 2 cbr 1000 ------- 2 1.0 5.1 7 7
d 0.398 2 3 cbr 1000 ------- 2 1.0 5.1 7 7
+ 0.42 1 2 cbr 1000 ------- 2 1.0 5.1 8 8
- 0.42 1 2 cbr 1000 ------- 2 1.0 5.1 8 8
r 0.438 1 2 cbr 1000 ------- 2 1.0 5.1 8 8
d 0.438 2 3 cbr 1000 ------- 2 1.0 5.1 8 8
+ 0.46 1 2 cbr 1000 ------- 2 1.0 5.1 9 9
- 0.46 1 2 cbr 1000 ------- 2 1.0 5.1 9 9
r 0.478 1 2 cbr 1000 ------- 2 1.0 5.1 9 9
d 0.478 2 3 cbr 1000 ------- 2 1.0 5.1 9 9
+ 0.5 1 2 cbr 1000 ------- 2 1.0 5.1 10 10
- 0.5 1 2 cbr 1000 ------- 2 1.0 5.1 10 10
r 0.518 1 2 cbr 1000 ------- 2 1.0 5.1 10 10
d 0.518 2 3 cbr 1000 ------- 2 1.0 5.1 10 10
+ 0.54 1 2 cbr 1000 ------- 2 1.0 5.1 11 11
- 0.54 1 2 cbr 1000 ------- 2 1.0 5.1 11 11
r 0.558 1 2 cbr 1000 ------- 2 1.0 5.1 11 11
d 0.558 2 3 cbr 1000 ------- 2 1.0 5.1 11 11
+ 0.58 1 2 cbr 1000 ------- 2 1.0 5.1 12 12
- 0.58 1 2 cbr 1000 ------- 2 1.0 5.1 12 12
r 0.598 1 2 cbr 1000 ------- 2 1.0 5.1 12 12
d 0.598 2 3 cbr 1000 ------- 2 1.0 5.1 12 12
+ 0.62 1 2 cbr 1000 ------- 2 1.0 5.1 13 13
- 0.62 1 2 cbr 1000 ------- 2 1.0 5.1 13 13
r 0.638 1 2 cbr 1000 ------- 2 1.0 5.1 13 13
d 0.638 2 3 cbr 1000 ------- 2 1.0 5.1 13 13
+ 0.66 1 2 cbr 1000 ------- 2 1.0 5.1 14 14
- 0.66 1 2 cbr 1000 ------- 2 1.0 5.1 14 14
r 0.678 1 2 cbr 1000 ------- 2 1.0 5.1 14 14
d 0.678 2 3 cbr 1000 ------- 2 1.0 5.1 14 14
+ 0.7 1 2 cbr 1000 ------- 2 1.0 5.1 15 15
- 0.7 1 2 cbr 1000 ------- 2 1.0 5.1 15 15
r 0.718 1 2 cbr 1000 ------- 2 1.0 5.1 15 15
d 0.718 2 3 cbr 1000 ------- 2 1.0 5.1 15 15
+ 0.74 1 2 cbr 1000 ------- 2 1.0 5.1 16 16
- 0.74 1 2 cbr 1000 ------- 2 1.0 5.1 16 16
r 0.758 1 2 cbr 1000 ------- 2 1.0 5.1 16 16
d 0.758 2 3 cbr 1000 ------- 2 1.0 5.1 16 16
+ 0.78 1 2 cbr 1000 ------- 2 1.0 5.1 17 17
- 0.78 1 2 cbr 1000 ------- 2 1.0 5.1 17 17
r 0.798 1 2 cbr 1000 ------- 2 1.0 5.1 17 17
d 0.798 2 3 cbr 1000 ------- 2 1.0 5.1 17 17
+ 0.82 1 2 cbr 1000 ------- 2 1.0 5.1 18 18
- 0.82 1 2 cbr 1000 ------- 2 1.0 5.1 18 18
r 0.838 1 2 cbr 1000 ------- 2 1.0 5.1 18 18
d 0.838 2 3 cbr 1000 ------- 2 1.0 5.1 18 18
+ 0.86 1 2 cbr 1000 ------- 2 1.0 5.1 19 19
- 0.86 1 2 cbr 1000 ------- 2 1.0 5.1 19 19
r 0.878 1 2 cbr 1000 ------- 2 1.0 5.1 19 19
d 0.878 2 3 cbr 1000 ------- 2 1.0 5.1 19 19
+ 0.9 1 2 cbr 1000 ------- 2 1.0 5.1 20 20
- 0.9 1 2 cbr 1000 ------- 2 1.0 5.1 20 20
r 0.918 1 2 cbr 1000 ------- 2 1.0 5.1 20 20
d 0.918 2 3 cbr 1000 ------- 2 1.0 5.1 20 20
+ 0.94 1 2 cbr 1000 ------- 2 1.0 5.1 21 21
- 0.94 1 2 cbr 1000 ------- 2 1.0 5.1 21 21
r 0.958 1 2 cbr 1000 ------- 2 1.0 5.1 21 21
d 0.958 2 3 cbr 1000 ------- 2 1.0 5.1 21 21
+ 0.98 1 2 cbr 1000 ------- 2 1.0 5.1 22 22
- 0.98 1 2 cbr 1000 ------- 2 1.0 5.1 22 22
r 0.998 1 2 cbr 1000 ------- 2 1.0 5.1 22 22
d 0.998 2 3 cbr 1000 ------- 2 1.0 5.1 22 22
+ 1 0 2 tcp 40 ------- 1 0.0 5.0 0 23
- 1 0 2 tcp 40 ------- 1 0.0 5.0 0 23
r 1.01032 0 2 tcp 40 ------- 1 0.0 5.0 0 23
d 1.01032 2 3 tcp 40 ------- 1 0.0 5.0 0 23
+ 1.02 1 2 cbr 1000 ------- 2 1.0 5.1 23 24
- 1.02 1 2 cbr 1000 ------- 2 1.0 5.1 23 24
r 1.038 1 2 cbr 1000 ------- 2 1.0 5.1 23 24
d 1.038 2 3 cbr 1000 ------- 2 1.0 5.1 23 24
+ 1.06 1 2 cbr 1000 ------- 2 1.0 5.1 24 25
- 1.06 1 2 cbr 1000 ------- 2 1.0 5.1 24 25
r 1.078 1 2 cbr 1000 ------- 2 1.0 5.1 24 25
d 1.078 2 3 cbr 1000 ------- 2 1.0 5.1 24 25
+ 1.1 1 2 cbr 1000 ------- 2 1.0 5.1 25 26
- 1.1 1 2 cbr 1000 ------- 2 1.0 5.1 25 26
r 1.118 1 2 cbr 1000 ------- 2 1.0 5.1 25 26
d 1.118 2 3 cbr 1000 ------- 2 1.0 5.1 25 26
+ 1.14 1 2 cbr 1000 ------- 2 1.0 5.1 26 27
- 1.14 1 2 cbr 1000 ------- 2 1.0 5.1 26 27
r 1.158 1 2 cbr 1000 ------- 2 1.0 5.1 26 27
d 1.158 2 3 cbr 1000 ------- 2 1.0 5.1 26 27
+ 1.18 1 2 cbr 1000 ------- 2 1.0 5.1 27 28
- 1.18 1 2 cbr 1000 ------- 2 1.0 5.1 27 28
r 1.198 1 2 cbr 1000 ------- 2 1.0 5.1 27 28
d 1.198 2 3 cbr 1000 ------- 2 1.0 5.1 27 28
+ 1.22 1 2 cbr 1000 ------- 2 1.0 5.1 28 29
- 1.22 1 2 cbr 1000 ------- 2 1.0 5.1 28 29
r 1.238 1 2 cbr 1000 ------- 2 1.0 5.1 28 29
d 1.238 2 3 cbr 1000 ------- 2 1.0 5.1 28 29
+ 1.26 1 2 cbr 1000 ------- 2 1.0 5.1 29 30
- 1.26 1 2 cbr 1000 ------- 2 1.0 5.1 29 30
r 1.278 1 2 cbr 1000 ------- 2 1.0 5.1 29 30
d 1.278 2 3 cbr 1000 ------- 2 1.0 5.1 29 30
+ 1.3 1 2 cbr 1000 ------- 2 1.0 5.1 30 31
- 1.3 1 2 cbr 1000 ------- 2 1.0 5.1 30 31
r 1.318 1 2 cbr 1000 ------- 2 1.0 5.1 30 31
d 1.318 2 3 cbr 1000 ------- 2 1.0 5.1 30 31
+ 1.34 1 2 cbr 1000 ------- 2 1.0 5.1 31 32
- 1.34 1 2 cbr 1000 ------- 2 1.0 5.1 31 32
r 1.358 1 2 cbr 1000 ------- 2 1.0 5.1 31 32
+ 1.358 2 3 cbr 1000 ------- 2 1.0 5.1 31 32
- 1.358 2 3 cbr 1000 ------- 2 1.0 5.1 31 32
+ 1.38 1 2 cbr 1000 ------- 2 1.0 5.1 32 33
- 1.38 1 2 cbr 1000 ------- 2 1.0 5.1 32 33
r 1.398 1 2 cbr 1000 ------- 2 1.0 5.1 32 33
d 1.398 2 3 cbr 1000 ------- 2 1.0 5.1 32 33
+ 1.42 1 2 cbr 1000 ------- 2 1.0 5.1 33 34
- 1.42 1 2 cbr 1000 ------- 2 1.0 5.1 33 34
r 1.438 1 2 cbr 1000 ------- 2 1.0 5.1 33 34
d 1.438 2 3 cbr 1000 ------- 2 1.0 5.1 33 34
+ 1.46 1 2 cbr 1000 ------- 2 1.0 5.1 34 35
- 1.46 1 2 cbr 1000 ------- 2 1.0 5.1 34 35
r 1.478 1 2 cbr 1000 ------- 2 1.0 5.1 34 35
d 1.478 2 3 cbr 1000 ------- 2 1.0 5.1 34 35
r 1.484667 2 3 cbr 1000 ------- 2 1.0 5.1 31 32
h 1.484667 3 6 cbr 1000 ------- 2 1.0 5.1 31 32
+ 1.5 1 2 cbr 1000 ------- 2 1.0 5.1 35 36
- 1.5 1 2 cbr 1000 ------- 2 1.0 5.1 35 36
r 1.518 1 2 cbr 1000 ------- 2 1.0 5.1 35 36
d 1.518 2 3 cbr 1000 ------- 2 1.0 5.1 35 36
+ 1.524667 3 6 cbr 1000 ------- 2 1.0 5.1 31 32
- 1.524667 3 6 cbr 1000 ------- 2 1.0 5.1 31 32
d 1.524671 4 6 cbr 1000 ------- 2 1.0 5.1 31 32
+ 1.54 1 2 cbr 1000 ------- 2 1.0 5.1 36 37
- 1.54 1 2 cbr 1000 ------- 2 1.0 5.1 36 37
r 1.558 1 2 cbr 1000 ------- 2 1.0 5.1 36 37
d 1.558 2 3 cbr 1000 ------- 2 1.0 5.1 36 37
r 1.564671 6 5 cbr 1000 ------- 2 1.0 5.1 31 32
+ 1.58 1 2 cbr 1000 ------- 2 1.0 5.1 37 38
- 1.58 1 2 cbr 1000 ------- 2 1.0 5.1 37 38
r 1.598 1 2 cbr 1000 ------- 2 1.0 5.1 37 38
+ 1.598 2 3 cbr 1000 ------- 2 1.0 5.1 37 38
- 1.598 2 3 cbr 1000 ------- 2 1.0 5.1 37 38
+ 1.62 1 2 cbr 1000 ------- 2 1.0 5.1 38 39
- 1.62 1 2 cbr 1000 ------- 2 1.0 5.1 38 39
r 1.638 1 2 cbr 1000 ------- 2 1.0 5.1 38 39
d 1.638 2 3 cbr 1000 ------- 2 1.0 5.1 38 39
+ 1.66 1 2 cbr 1000 ------- 2 1.0 5.1 39 40
- 1.66 1 2 cbr 1000 ------- 2 1.0 5.1 39 40
r 1.678 1 2 cbr 1000 ------- 2 1.0 5.1 39 40
d 1.678 2 3 cbr 1000 ------- 2 1.0 5.1 39 40
+ 1.7 1 2 cbr 1000 ------- 2 1.0 5.1 40 41
- 1.7 1 2 cbr 1000 ------- 2 1.0 5.1 40 41
r 1.718 1 2 cbr 1000 ------- 2 1.0 5.1 40 41
d 1.718 2 3 cbr 1000 ------- 2 1.0 5.1 40 41
r 1.724667 2 3 cbr 1000 ------- 2 1.0 5.1 37 38
h 1.724667 3 6 cbr 1000 ------- 2 1.0 5.1 37 38
+ 1.74 1 2 cbr 1000 ------- 2 1.0 5.1 41 42
- 1.74 1 2 cbr 1000 ------- 2 1.0 5.1 41 42
r 1.758 1 2 cbr 1000 ------- 2 1.0 5.1 41 42
d 1.758 2 3 cbr 1000 ------- 2 1.0 5.1 41 42
+ 1.764667 3 6 cbr 1000 ------- 2 1.0 5.1 37 38
- 1.764667 3 6 cbr 1000 ------- 2 1.0 5.1 37 38
d 1.764671 4 6 cbr 1000 ------- 2 1.0 5.1 37 38
+ 1.78 1 2 cbr 1000 ------- 2 1.0 5.1 42 43
- 1.78 1 2 cbr 1000 ------- 2 1.0 5.1 42 43
r 1.798 1 2 cbr 1000 ------- 2 1.0 5.1 42 43
d 1.798 2 3 cbr 1000 ------- 2 1.0 5.1 42 43
r 1.804671 6 5 cbr 1000 ------- 2 1.0 5.1 37 38
+ 1.82 1 2 cbr 1000 ------- 2 1.0 5.1 43 44
- 1.82 1 2 cbr 1000 ------- 2 1.0 5.1 43 44
r 1.838 1 2 cbr 1000 ------- 2 1.0 5.1 43 44
d 1.838 2 3 cbr 1000 ------- 2 1.0 5.1 43 44
+ 1.86 1 2 cbr 1000 ------- 2 1.0 5.1 44 45
- 1.86 1 2 cbr 1000 ------- 2 1.0 5.1 44 45
r 1.878 1 2 cbr 1000 ------- 2 1.0 5.1 44 45
d 1.878 2 3 cbr 1000 ------- 2 1.0 5.1 44 45
+ 1.9 1 2 cbr 1000 ------- 2 1.0 5.1 45 46
- 1.9 1 2 cbr 1000 ------- 2 1.0 5.1 45 46
r 1.918 1 2 cbr 1000 ------- 2 1.0 5.1 45 46
d 1.918 2 3 cbr 1000 ------- 2 1.0 5.1 45 46
+ 1.94 1 2 cbr 1000 ------- 2 1.0 5.1 46 47
- 1.94 1 2 cbr 1000 ------- 2 1.0 5.1 46 47
r 1.958 1 2 cbr 1000 ------- 2 1.0 5.1 46 47
d 1.958 2 3 cbr 1000 ------- 2 1.0 5.1 46 47
+ 1.98 1 2 cbr 1000 ------- 2 1.0 5.1 47 48
- 1.98 1 2 cbr 1000 ------- 2 1.0 5.1 47 48
r 1.998 1 2 cbr 1000 ------- 2 1.0 5.1 47 48
d 1.998 2 3 cbr 1000 ------- 2 1.0 5.1 47 48
+ 2.02 1 2 cbr 1000 ------- 2 1.0 5.1 48 49
- 2.02 1 2 cbr 1000 ------- 2 1.0 5.1 48 49
r 2.038 1 2 cbr 1000 ------- 2 1.0 5.1 48 49
d 2.038 2 3 cbr 1000 ------- 2 1.0 5.1 48 49
+ 2.06 1 2 cbr 1000 ------- 2 1.0 5.1 49 50
- 2.06 1 2 cbr 1000 ------- 2 1.0 5.1 49 50
r 2.078 1 2 cbr 1000 ------- 2 1.0 5.1 49 50
d 2.078 2 3 cbr 1000 ------- 2 1.0 5.1 49 50
+ 2.1 1 2 cbr 1000 ------- 2 1.0 5.1 50 51
- 2.1 1 2 cbr 1000 ------- 2 1.0 5.1 50 51
r 2.118 1 2 cbr 1000 ------- 2 1.0 5.1 50 51
d 2.118 2 3 cbr 1000 ------- 2 1.0 5.1 50 51
+ 2.14 1 2 cbr 1000 ------- 2 1.0 5.1 51 52
- 2.14 1 2 cbr 1000 ------- 2 1.0 5.1 51 52
r 2.158 1 2 cbr 1000 ------- 2 1.0 5.1 51 52
d 2.158 2 3 cbr 1000 ------- 2 1.0 5.1 51 52
+ 2.18 1 2 cbr 1000 ------- 2 1.0 5.1 52 53
- 2.18 1 2 cbr 1000 ------- 2 1.0 5.1 52 53
r 2.198 1 2 cbr 1000 ------- 2 1.0 5.1 52 53
d 2.198 2 3 cbr 1000 ------- 2 1.0 5.1 52 53
+ 2.22 1 2 cbr 1000 ------- 2 1.0 5.1 53 54
- 2.22 1 2 cbr 1000 ------- 2 1.0 5.1 53 54
r 2.238 1 2 cbr 1000 ------- 2 1.0 5.1 53 54
d 2.238 2 3 cbr 1000 ------- 2 1.0 5.1 53 54
+ 2.26 1 2 cbr 1000 ------- 2 1.0 5.1 54 55
- 2.26 1 2 cbr 1000 ------- 2 1.0 5.1 54 55
r 2.278 1 2 cbr 1000 ------- 2 1.0 5.1 54 55
d 2.278 2 3 cbr 1000 ------- 2 1.0 5.1 54 55
+ 2.3 1 2 cbr 1000 ------- 2 1.0 5.1 55 56
- 2.3 1 2 cbr 1000 ------- 2 1.0 5.1 55 56
r 2.318 1 2 cbr 1000 ------- 2 1.0 5.1 55 56
d 2.318 2 3 cbr 1000 ------- 2 1.0 5.1 55 56
+ 2.34 1 2 cbr 1000 ------- 2 1.0 5.1 56 57
- 2.34 1 2 cbr 1000 ------- 2 1.0 5.1 56 57
r 2.358 1 2 cbr 1000 ------- 2 1.0 5.1 56 57
d 2.358 2 3 cbr 1000 ------- 2 1.0 5.1 56 57
+ 2.38 1 2 cbr 1000 ------- 2 1.0 5.1 57 58
- 2.38 1 2 cbr 1000 ------- 2 1.0 5.1 57 58
r 2.398 1 2 cbr 1000 ------- 2 1.0 5.1 57 58
+ 2.398 2 3 cbr 1000 ------- 2 1.0 5.1 57 58
- 2.398 2 3 cbr 1000 ------- 2 1.0 5.1 57 58
+ 2.42 1 2 cbr 1000 ------- 2 1.0 5.1 58 59
- 2.42 1 2 cbr 1000 ------- 2 1.0 5.1 58 59
r 2.438 1 2 cbr 1000 ------- 2 1.0 5.1 58 59
d 2.438 2 3 cbr 1000 ------- 2 1.0 5.1 58 59
+ 2.46 1 2 cbr 1000 ------- 2 1.0 5.1 59 60
- 2.46 1 2 cbr 1000 ------- 2 1.0 5.1 59 60
r 2.478 1 2 cbr 1000 ------- 2 1.0 5.1 59 60
d 2.478 2 3 cbr 1000 ------- 2 1.0 5.1 59 60
+ 2.5 1 2 cbr 1000 ------- 2 1.0 5.1 60 61
- 2.5 1 2 cbr 1000 ------- 2 1.0 5.1 60 61
r 2.518 1 2 cbr 1000 ------- 2 1.0 5.1 60 61
d 2.518 2 3 cbr 1000 ------- 2 1.0 5.1 60 61
r 2.524667 2 3 cbr 1000 ------- 2 1.0 5.1 57 58
h 2.524667 3 6 cbr 1000 ------- 2 1.0 5.1 57 58
+ 2.54 1 2 cbr 1000 ------- 2 1.0 5.1 61 62
- 2.54 1 2 cbr 1000 ------- 2 1.0 5.1 61 62
r 2.558 1 2 cbr 1000 ------- 2 1.0 5.1 61 62
d 2.558 2 3 cbr 1000 ------- 2 1.0 5.1 61 62
+ 2.564667 3 6 cbr 1000 ------- 2 1.0 5.1 57 58
- 2.564667 3 6 cbr 1000 ------- 2 1.0 5.1 57 58
d 2.564671 4 6 cbr 1000 ------- 2 1.0 5.1 57 58
+ 2.58 1 2 cbr 1000 ------- 2 1.0 5.1 62 63
- 2.58 1 2 cbr 1000 ------- 2 1.0 5.1 62 63
r 2.598 1 2 cbr 1000 ------- 2 1.0 5.1 62 63
+ 2.598 2 3 cbr 1000 ------- 2 1.0 5.1 62 63
- 2.598 2 3 cbr 1000 ------- 2 1.0 5.1 62 63
r 2.604671 6 5 cbr 1000 ------- 2 1.0 5.1 57 58
+ 2.62 1 2 cbr 1000 ------- 2 1.0 5.1 63 64
- 2.62 1 2 cbr 1000 ------- 2 1.0 5.1 63 64
r 2.638 1 2 cbr 1000 ------- 2 1.0 5.1 63 64
d 2.638 2 3 cbr 1000 ------- 2 1.0 5.1 63 64
+ 2.66 1 2 cbr 1000 ------- 2 1.0 5.1 64 65
- 2.66 1 2 cbr 1000 ------- 2 1.0 5.1 64 65
r 2.678 1 2 cbr 1000 ------- 2 1.0 5.1 64 65
d 2.678 2 3 cbr 1000 ------- 2 1.0 5.1 64 65
+ 2.7 1 2 cbr 1000 ------- 2 1.0 5.1 65 66
- 2.7 1 2 cbr 1000 ------- 2 1.0 5.1 65 66
r 2.718 1 2 cbr 1000 ------- 2 1.0 5.1 65 66
d 2.718 2 3 cbr 1000 ------- 2 1.0 5.1 65 66
r 2.724667 2 3 cbr 1000 ------- 2 1.0 5.1 62 63
h 2.724667 3 6 cbr 1000 ------- 2 1.0 5.1 62 63
+ 2.74 1 2 cbr 1000 ------- 2 1.0 5.1 66 67
- 2.74 1 2 cbr 1000 ------- 2 1.0 5.1 66 67
r 2.758 1 2 cbr 1000 ------- 2 1.0 5.1 66 67
d 2.758 2 3 cbr 1000 ------- 2 1.0 5.1 66 67
+ 2.764667 3 6 cbr 1000 ------- 2 1.0 5.1 62 63
- 2.764667 3 6 cbr 1000 ------- 2 1.0 5.1 62 63
d 2.764671 4 6 cbr 1000 ------- 2 1.0 5.1 62 63
+ 2.78 1 2 cbr 1000 ------- 2 1.0 5.1 67 68
- 2.78 1 2 cbr 1000 ------- 2 1.0 5.1 67 68
r 2.798 1 2 cbr 1000 ------- 2 1.0 5.1 67 68
d 2.798 2 3 cbr 1000 ------- 2 1.0 5.1 67 68
r 2.804671 6 5 cbr 1000 ------- 2 1.0 5.1 62 63
+ 2.82 1 2 cbr 1000 ------- 2 1.0 5.1 68 69
- 2.82 1 2 cbr 1000 ------- 2 1.0 5.1 68 69
r 2.838 1 2 cbr 1000 ------- 2 1.0 5.1 68 69
d 2.838 2 3 cbr 1000 ------- 2 1.0 5.1 68 69
+ 2.86 1 2 cbr 1000 ------- 2 1.0 5.1 69 70
- 2.86 1 2 cbr 1000 ------- 2 1.0 5.1 69 70
r 2.878 1 2 cbr 1000 ------- 2 1.0 5.1 69 70
d 2.878 2 3 cbr 1000 ------- 2 1.0 5.1 69 70
+ 2.9 1 2 cbr 1000 ------- 2 1.0 5.1 70 71
- 2.9 1 2 cbr 1000 ------- 2 1.0 5.1 70 71
r 2.918 1 2 cbr 1000 ------- 2 1.0 5.1 70 71
d 2.918 2 3 cbr 1000 ------- 2 1.0 5.1 70 71
+ 2.94 1 2 cbr 1000 ------- 2 1.0 5.1 71 72
- 2.94 1 2 cbr 1000 ------- 2 1.0 5.1 71 72
r 2.958 1 2 cbr 1000 ------- 2 1.0 5.1 71 72
d 2.958 2 3 cbr 1000 ------- 2 1.0 5.1 71 72
+ 2.98 1 2 cbr 1000 ------- 2 1.0 5.1 72 73
- 2.98 1 2 cbr 1000 ------- 2 1.0 5.1 72 73
r 2.998 1 2 cbr 1000 ------- 2 1.0 5.1 72 73
+ 2.998 2 3 cbr 1000 ------- 2 1.0 5.1 72 73
- 2.998 2 3 cbr 1000 ------- 2 1.0 5.1 72 73
+ 3.02 1 2 cbr 1000 ------- 2 1.0 5.1 73 74
- 3.02 1 2 cbr 1000 ------- 2 1.0 5.1 73 74
r 3.038 1 2 cbr 1000 ------- 2 1.0 5.1 73 74
d 3.038 2 3 cbr 1000 ------- 2 1.0 5.1 73 74
+ 3.06 1 2 cbr 1000 ------- 2 1.0 5.1 74 75
- 3.06 1 2 cbr 1000 ------- 2 1.0 5.1 74 75
r 3.078 1 2 cbr 1000 ------- 2 1.0 5.1 74 75
d 3.078 2 3 cbr 1000 ------- 2 1.0 5.1 74 75
+ 3.1 1 2 cbr 1000 ------- 2 1.0 5.1 75 76
- 3.1 1 2 cbr 1000 ------- 2 1.0 5.1 75 76
r 3.118 1 2 cbr 1000 ------- 2 1.0 5.1 75 76
d 3.118 2 3 cbr 1000 ------- 2 1.0 5.1 75 76
r 3.124667 2 3 cbr 1000 ------- 2 1.0 5.1 72 73
h 3.124667 3 6 cbr 1000 ------- 2 1.0 5.1 72 73
+ 3.14 1 2 cbr 1000 ------- 2 1.0 5.1 76 77
- 3.14 1 2 cbr 1000 ------- 2 1.0 5.1 76 77
r 3.158 1 2 cbr 1000 ------- 2 1.0 5.1 76 77
d 3.158 2 3 cbr 1000 ------- 2 1.0 5.1 76 77
+ 3.164667 3 6 cbr 1000 ------- 2 1.0 5.1 72 73
- 3.164667 3 6 cbr 1000 ------- 2 1.0 5.1 72 73
d 3.164671 4 6 cbr 1000 ------- 2 1.0 5.1 72 73
+ 3.18 1 2 cbr 1000 ------- 2 1.0 5.1 77 78
- 3.18 1 2 cbr 1000 ------- 2 1.0 5.1 77 78
r 3.198 1 2 cbr 1000 ------- 2 1.0 5.1 77 78
d 3.198 2 3 cbr 1000 ------- 2 1.0 5.1 77 78
r 3.204671 6 5 cbr 1000 ------- 2 1.0 5.1 72 73
+ 3.22 1 2 cbr 1000 ------- 2 1.0 5.1 78 79
- 3.22 1 2 cbr 1000 ------- 2 1.0 5.1 78 79
r 3.238 1 2 cbr 1000 ------- 2 1.0 5.1 78 79
d 3.238 2 3 cbr 1000 ------- 2 1.0 5.1 78 79
+ 3.26 1 2 cbr 1000 ------- 2 1.0 5.1 79 80
- 3.26 1 2 cbr 1000 ------- 2 1.0 5.1 79 80
r 3.278 1 2 cbr 1000 ------- 2 1.0 5.1 79 80
d 3.278 2 3 cbr 1000 ------- 2 1.0 5.1 79 80
+ 3.3 1 2 cbr 1000 ------- 2 1.0 5.1 80 81
- 3.3 1 2 cbr 1000 ------- 2 1.0 5.1 80 81
r 3.318 1 2 cbr 1000 ------- 2 1.0 5.1 80 81
d 3.318 2 3 cbr 1000 ------- 2 1.0 5.1 80 81
+ 3.34 1 2 cbr 1000 ------- 2 1.0 5.1 81 82
- 3.34 1 2 cbr 1000 ------- 2 1.0 5.1 81 82
r 3.358 1 2 cbr 1000 ------- 2 1.0 5.1 81 82
d 3.358 2 3 cbr 1000 ------- 2 1.0 5.1 81 82
+ 3.38 1 2 cbr 1000 ------- 2 1.0 5.1 82 83
- 3.38 1 2 cbr 1000 ------- 2 1.0 5.1 82 83
r 3.398 1 2 cbr 1000 ------- 2 1.0 5.1 82 83
d 3.398 2 3 cbr 1000 ------- 2 1.0 5.1 82 83
+ 3.42 1 2 cbr 1000 ------- 2 1.0 5.1 83 84
- 3.42 1 2 cbr 1000 ------- 2 1.0 5.1 83 84
r 3.438 1 2 cbr 1000 ------- 2 1.0 5.1 83 84
d 3.438 2 3 cbr 1000 ------- 2 1.0 5.1 83 84
+ 3.46 1 2 cbr 1000 ------- 2 1.0 5.1 84 85
- 3.46 1 2 cbr 1000 ------- 2 1.0 5.1 84 85
r 3.478 1 2 cbr 1000 ------- 2 1.0 5.1 84 85
d 3.478 2 3 cbr 1000 ------- 2 1.0 5.1 84 85
+ 3.5 1 2 cbr 1000 ------- 2 1.0 5.1 85 86
- 3.5 1 2 cbr 1000 ------- 2 1.0 5.1 85 86
r 3.518 1 2 cbr 1000 ------- 2 1.0 5.1 85 86
d 3.518 2 3 cbr 1000 ------- 2 1.0 5.1 85 86
+ 3.54 1 2 cbr 1000 ------- 2 1.0 5.1 86 87
- 3.54 1 2 cbr 1000 ------- 2 1.0 5.1 86 87
r 3.558 1 2 cbr 1000 ------- 2 1.0 5.1 86 87
d 3.558 2 3 cbr 1000 ------- 2 1.0 5.1 86 87
+ 3.58 1 2 cbr 1000 ------- 2 1.0 5.1 87 88
- 3.58 1 2 cbr 1000 ------- 2 1.0 5.1 87 88
r 3.598 1 2 cbr 1000 ------- 2 1.0 5.1 87 88
d 3.598 2 3 cbr 1000 ------- 2 1.0 5.1 87 88
+ 3.62 1 2 cbr 1000 ------- 2 1.0 5.1 88 89
- 3.62 1 2 cbr 1000 ------- 2 1.0 5.1 88 89
r 3.638 1 2 cbr 1000 ------- 2 1.0 5.1 88 89
d 3.638 2 3 cbr 1000 ------- 2 1.0 5.1 88 89
+ 3.66 1 2 cbr 1000 ------- 2 1.0 5.1 89 90
- 3.66 1 2 cbr 1000 ------- 2 1.0 5.1 89 90
r 3.678 1 2 cbr 1000 ------- 2 1.0 5.1 89 90
d 3.678 2 3 cbr 1000 ------- 2 1.0 5.1 89 90
+ 3.7 1 2 cbr 1000 ------- 2 1.0 5.1 90 91
- 3.7 1 2 cbr 1000 ------- 2 1.0 5.1 90 91
r 3.718 1 2 cbr 1000 ------- 2 1.0 5.1 90 91
d 3.718 2 3 cbr 1000 ------- 2 1.0 5.1 90 91
+ 3.74 1 2 cbr 1000 ------- 2 1.0 5.1 91 92
- 3.74 1 2 cbr 1000 ------- 2 1.0 5.1 91 92
r 3.758 1 2 cbr 1000 ------- 2 1.0 5.1 91 92
+ 3.758 2 3 cbr 1000 ------- 2 1.0 5.1 91 92
- 3.758 2 3 cbr 1000 ------- 2 1.0 5.1 91 92
+ 3.78 1 2 cbr 1000 ------- 2 1.0 5.1 92 93
- 3.78 1 2 cbr 1000 ------- 2 1.0 5.1 92 93
r 3.798 1 2 cbr 1000 ------- 2 1.0 5.1 92 93
d 3.798 2 3 cbr 1000 ------- 2 1.0 5.1 92 93
+ 3.82 1 2 cbr 1000 ------- 2 1.0 5.1 93 94
- 3.82 1 2 cbr 1000 ------- 2 1.0 5.1 93 94
r 3.838 1 2 cbr 1000 ------- 2 1.0 5.1 93 94
d 3.838 2 3 cbr 1000 ------- 2 1.0 5.1 93 94
+ 3.86 1 2 cbr 1000 ------- 2 1.0 5.1 94 95
- 3.86 1 2 cbr 1000 ------- 2 1.0 5.1 94 95
r 3.878 1 2 cbr 1000 ------- 2 1.0 5.1 94 95
d 3.878 2 3 cbr 1000 ------- 2 1.0 5.1 94 95
r 3.884667 2 3 cbr 1000 ------- 2 1.0 5.1 91 92
h 3.884667 3 6 cbr 1000 ------- 2 1.0 5.1 91 92
+ 3.9 1 2 cbr 1000 ------- 2 1.0 5.1 95 96
- 3.9 1 2 cbr 1000 ------- 2 1.0 5.1 95 96
r 3.918 1 2 cbr 1000 ------- 2 1.0 5.1 95 96
d 3.918 2 3 cbr 1000 ------- 2 1.0 5.1 95 96
+ 3.924667 3 6 cbr 1000 ------- 2 1.0 5.1 91 92
- 3.924667 3 6 cbr 1000 ------- 2 1.0 5.1 91 92
d 3.924671 4 6 cbr 1000 ------- 2 1.0 5.1 91 92
+ 3.94 1 2 cbr 1000 ------- 2 1.0 5.1 96 97
- 3.94 1 2 cbr 1000 ------- 2 1.0 5.1 96 97
r 3.958 1 2 cbr 1000 ------- 2 1.0 5.1 96 97
d 3.958 2 3 cbr 1000 ------- 2 1.0 5.1 96 97
r 3.964671 6 5 cbr 1000 ------- 2 1.0 5.1 91 92
+ 3.98 1 2 cbr 1000 ------- 2 1.0 5.1 97 98
- 3.98 1 2 cbr 1000 ------- 2 1.0 5.1 97 98
r 3.998 1 2 cbr 1000 ------- 2 1.0 5.1 97 98
d 3.998 2 3 cbr 1000 ------- 2 1.0 5.1 97 98
+ 4 0 2 tcp 40 ---A--- 1 0.0 5.0 0 99
- 4 0 2 tcp 40 ---A--- 1 0.0 5.0 0 99
r 4.01032 0 2 tcp 40 ---A--- 1 0.0 5.0 0 99
d 4.01032 2 3 tcp 40 ---A--- 1 0.0 5.0 0 99
+ 4.02 1 2 cbr 1000 ------- 2 1.0 5.1 98 100
- 4.02 1 2 cbr 1000 ------- 2 1.0 5.1 98 100
r 4.038 1 2 cbr 1000 ------- 2 1.0 5.1 98 100
d 4.038 2 3 cbr 1000 ------- 2 1.0 5.1 98 100
+ 4.06 1 2 cbr 1000 ------- 2 1.0 5.1 99 101
- 4.06 1 2 cbr 1000 ------- 2 1.0 5.1 99 101
r 4.078 1 2 cbr 1000 ------- 2 1.0 5.1 99 101
d 4.078 2 3 cbr 1000 ------- 2 1.0 5.1 99 101
+ 4.1 1 2 cbr 1000 ------- 2 1.0 5.1 100 102
- 4.1 1 2 cbr 1000 ------- 2 1.0 5.1 100 102
r 4.118 1 2 cbr 1000 ------- 2 1.0 5.1 100 102
d 4.118 2 3 cbr 1000 ------- 2 1.0 5.1 100 102
+ 4.14 1 2 cbr 1000 ------- 2 1.0 5.1 101 103
- 4.14 1 2 cbr 1000 ------- 2 1.0 5.1 101 103
r 4.158 1 2 cbr 1000 ------- 2 1.0 5.1 101 103
d 4.158 2 3 cbr 1000 ------- 2 1.0 5.1 101 103
+ 4.18 1 2 cbr 1000 ------- 2 1.0 5.1 102 104
- 4.18 1 2 cbr 1000 ------- 2 1.0 5.1 102 104
r 4.198 1 2 cbr 1000 ------- 2 1.0 5.1 102 104
d 4.198 2 3 cbr 1000 ------- 2 1.0 5.1 102 104
+ 4.22 1 2 cbr 1000 ------- 2 1.0 5.1 103 105
- 4.22 1 2 cbr 1000 ------- 2 1.0 5.1 103 105
r 4.238 1 2 cbr 1000 ------- 2 1.0 5.1 103 105
d 4.238 2 3 cbr 1000 ------- 2 1.0 5.1 103 105
+ 4.26 1 2 cbr 1000 ------- 2 1.0 5.1 104 106
- 4.26 1 2 cbr 1000 ------- 2 1.0 5.1 104 106
r 4.278 1 2 cbr 1000 ------- 2 1.0 5.1 104 106
d 4.278 2 3 cbr 1000 ------- 2 1.0 5.1 104 106
+ 4.3 1 2 cbr 1000 ------- 2 1.0 5.1 105 107
- 4.3 1 2 cbr 1000 ------- 2 1.0 5.1 105 107
r 4.318 1 2 cbr 1000 ------- 2 1.0 5.1 105 107
d 4.318 2 3 cbr 1000 ------- 2 1.0 5.1 105 107
+ 4.34 1 2 cbr 1000 ------- 2 1.0 5.1 106 108
- 4.34 1 2 cbr 1000 ------- 2 1.0 5.1 106 108
r 4.358 1 2 cbr 1000 ------- 2 1.0 5.1 106 108
d 4.358 2 3 cbr 1000 ------- 2 1.0 5.1 106 108
+ 4.38 1 2 cbr 1000 ------- 2 1.0 5.1 107 109
- 4.38 1 2 cbr 1000 ------- 2 1.0 5.1 107 109
r 4.398 1 2 cbr 1000 ------- 2 1.0 5.1 107 109
d 4.398 2 3 cbr 1000 ------- 2 1.0 5.1 107 109
+ 4.42 1 2 cbr 1000 ------- 2 1.0 5.1 108 110
- 4.42 1 2 cbr 1000 ------- 2 1.0 5.1 108 110
r 4.438 1 2 cbr 1000 ------- 2 1.0 5.1 108 110
d 4.438 2 3 cbr 1000 ------- 2 1.0 5.1 108 110
+ 4.46 1 2 cbr 1000 ------- 2 1.0 5.1 109 111
- 4.46 1 2 cbr 1000 ------- 2 1.0 5.1 109 111
r 4.478 1 2 cbr 1000 ------- 2 1.0 5.1 109 111
d 4.478 2 3 cbr 1000 ------- 2 1.0 5.1 109 111
+ 4.5 1 2 cbr 1000 ------- 2 1.0 5.1 110 112
- 4.5 1 2 cbr 1000 ------- 2 1.0 5.1 110 112
r 4.518 1 2 cbr 1000 ------- 2 1.0 5.1 110 112
d 4.518 2 3 cbr 1000 ------- 2 1.0 5.1 110 112
+ 4.54 1 2 cbr 1000 ------- 2 1.0 5.1 111 113
- 4.54 1 2 cbr 1000 ------- 2 1.0 5.1 111 113
r 4.558 1 2 cbr 1000 ------- 2 1.0 5.1 111 113
d 4.558 2 3 cbr 1000 ------- 2 1.0 5.1 111 113
+ 4.58 1 2 cbr 1000 ------- 2 1.0 5.1 112 114
- 4.58 1 2 cbr 1000 ------- 2 1.0 5.1 112 114
r 4.598 1 2 cbr 1000 ------- 2 1.0 5.1 112 114
d 4.598 2 3 cbr 1000 ------- 2 1.0 5.1 112 114
+ 4.62 1 2 cbr 1000 ------- 2 1.0 5.1 113 115
- 4.62 1 2 cbr 1000 ------- 2 1.0 5.1 113 115
r 4.638 1 2 cbr 1000 ------- 2 1.0 5.1 113 115
d 4.638 2 3 cbr 1000 ------- 2 1.0 5.1 113 115
+ 4.66 1 2 cbr 1000 ------- 2 1.0 5.1 114 116
- 4.66 1 2 cbr 1000 ------- 2 1.0 5.1 114 116
r 4.678 1 2 cbr 1000 ------- 2 1.0 5.1 114 116
d 4.678 2 3 cbr 1000 ------- 2 1.0 5.1 114 116
+ 4.7 1 2 cbr 1000 ------- 2 1.0 5.1 115 117
- 4.7 1 2 cbr 1000 ------- 2 1.0 5.1 115 117
r 4.718 1 2 cbr 1000 ------- 2 1.0 5.1 115 117
d 4.718 2 3 cbr 1000 ------- 2 1.0 5.1 115 117
+ 4.74 1 2 cbr 1000 ------- 2 1.0 5.1 116 118
- 4.74 1 2 cbr 1000 ------- 2 1.0 5.1 116 118
r 4.758 1 2 cbr 1000 ------- 2 1.0 5.1 116 118
d 4.758 2 3 cbr 1000 ------- 2 1.0 5.1 116 118
+ 4.78 1 2 cbr 1000 ------- 2 1.0 5.1 117 119
- 4.78 1 2 cbr 1000 ------- 2 1.0 5.1 117 119
r 4.798 1 2 cbr 1000 ------- 2 1.0 5.1 117 119
d 4.798 2 3 cbr 1000 ------- 2 1.0 5.1 117 119
+ 4.82 1 2 cbr 1000 ------- 2 1.0 5.1 118 120
- 4.82 1 2 cbr 1000 ------- 2 1.0 5.1 118 120
r 4.838 1 2 cbr 1000 ------- 2 1.0 5.1 118 120
d 4.838 2 3 cbr 1000 ------- 2 1.0 5.1 118 120
+ 4.86 1 2 cbr 1000 ------- 2 1.0 5.1 119 121
- 4.86 1 2 cbr 1000 ------- 2 1.0 5.1 119 121
r 4.878 1 2 cbr 1000 ------- 2 1.0 5.1 119 121
d 4.878 2 3 cbr 1000 ------- 2 1.0 5.1 119 121
+ 4.9 1 2 cbr 1000 ------- 2 1.0 5.1 120 122
- 4.9 1 2 cbr 1000 ------- 2 1.0 5.1 120 122
r 4.918 1 2 cbr 1000 ------- 2 1.0 5.1 120 122
d 4.918 2 3 cbr 1000 ------- 2 1.0 5.1 120 122
+ 4.94 1 2 cbr 1000 ------- 2 1.0 5.1 121 123
- 4.94 1 2 cbr 1000 ------- 2 1.0 5.1 121 123
r 4.958 1 2 cbr 1000 ------- 2 1.0 5.1 121 123
d 4.958 2 3 cbr 1000 ------- 2 1.0 5.1 121 123
+ 4.98 1 2 cbr 1000 ------- 2 1.0 5.1 122 124
- 4.98 1 2 cbr 1000 ------- 2 1.0 5.1 122 124
r 4.998 1 2 cbr 1000 ------- 2 1.0 5.1 122 124
d 4.998 2 3 cbr 1000 ------- 2 1.0 5.1 122 124
+ 5.02 1 2 cbr 1000 ------- 2 1.0 5.1 123 125
- 5.02 1 2 cbr 1000 ------- 2 1.0 5.1 123 125
r 5.038 1 2 cbr 1000 ------- 2 1.0 5.1 123 125
d 5.038 2 3 cbr 1000 ------- 2 1.0 5.1 123 125
+ 5.06 1 2 cbr 1000 ------- 2 1.0 5.1 124 126
- 5.06 1 2 cbr 1000 ------- 2 1.0 5.1 124 126
r 5.078 1 2 cbr 1000 ------- 2 1.0 5.1 124 126
d 5.078 2 3 cbr 1000 ------- 2 1.0 5.1 124 126
+ 5.1 1 2 cbr 1000 ------- 2 1.0 5.1 125 127
- 5.1 1 2 cbr 1000 ------- 2 1.0 5.1 125 127
r 5.118 1 2 cbr 1000 ------- 2 1.0 5.1 125 127
d 5.118 2 3 cbr 1000 ------- 2 1.0 5.1 125 127
+ 5.14 1 2 cbr 1000 ------- 2 1.0 5.1 126 128
- 5.14 1 2 cbr 1000 ------- 2 1.0 5.1 126 128
r 5.158 1 2 cbr 1000 ------- 2 1.0 5.1 126 128
d 5.158 2 3 cbr 1000 ------- 2 1.0 5.1 126 128
+ 5.18 1 2 cbr 1000 ------- 2 1.0 5.1 127 129
- 5.18 1 2 cbr 1000 ------- 2 1.0 5.1 127 129
r 5.198 1 2 cbr 1000 ------- 2 1.0 5.1 127 129
d 5.198 2 3 cbr 1000 ------- 2 1.0 5.1 127 129
+ 5.22 1 2 cbr 1000 ------- 2 1.0 5.1 128 130
- 5.22 1 2 cbr 1000 ------- 2 1.0 5.1 128 130
r 5.238 1 2 cbr 1000 ------- 2 1.0 5.1 128 130
d 5.238 2 3 cbr 1000 ------- 2 1.0 5.1 128 130
+ 5.26 1 2 cbr 1000 ------- 2 1.0 5.1 129 131
- 5.26 1 2 cbr 1000 ------- 2 1.0 5.1 129 131
r 5.278 1 2 cbr 1000 ------- 2 1.0 5.1 129 131
d 5.278 2 3 cbr 1000 ------- 2 1.0 5.1 129 131
+ 5.3 1 2 cbr 1000 ------- 2 1.0 5.1 130 132
- 5.3 1 2 cbr 1000 ------- 2 1.0 5.1 130 132
r 5.318 1 2 cbr 1000 ------- 2 1.0 5.1 130 132
d 5.318 2 3 cbr 1000 ------- 2 1.0 5.1 130 132
+ 5.34 1 2 cbr 1000 ------- 2 1.0 5.1 131 133
- 5.34 1 2 cbr 1000 ------- 2 1.0 5.1 131 133
r 5.358 1 2 cbr 1000 ------- 2 1.0 5.1 131 133
d 5.358 2 3 cbr 1000 ------- 2 1.0 5.1 131 133
+ 5.38 1 2 cbr 1000 ------- 2 1.0 5.1 132 134
- 5.38 1 2 cbr 1000 ------- 2 1.0 5.1 132 134
r 5.398 1 2 cbr 1000 ------- 2 1.0 5.1 132 134
d 5.398 2 3 cbr 1000 ------- 2 1.0 5.1 132 134
+ 5.42 1 2 cbr 1000 ------- 2 1.0 5.1 133 135
- 5.42 1 2 cbr 1000 ------- 2 1.0 5.1 133 135
r 5.438 1 2 cbr 1000 ------- 2 1.0 5.1 133 135
d 5.438 2 3 cbr 1000 ------- 2 1.0 5.1 133 135
+ 5.46 1 2 cbr 1000 ------- 2 1.0 5.1 134 136
- 5.46 1 2 cbr 1000 ------- 2 1.0 5.1 134 136
r 5.478 1 2 cbr 1000 ------- 2 1.0 5.1 134 136
d 5.478 2 3 cbr 1000 ------- 2 1.0 5.1 134 136
+ 5.5 1 2 cbr 1000 ------- 2 1.0 5.1 135 137
- 5.5 1 2 cbr 1000 ------- 2 1.0 5.1 135 137
r 5.518 1 2 cbr 1000 ------- 2 1.0 5.1 135 137
d 5.518 2 3 cbr 1000 ------- 2 1.0 5.1 135 137
+ 5.54 1 2 cbr 1000 ------- 2 1.0 5.1 136 138
- 5.54 1 2 cbr 1000 ------- 2 1.0 5.1 136 138
r 5.558 1 2 cbr 1000 ------- 2 1.0 5.1 136 138
d 5.558 2 3 cbr 1000 ------- 2 1.0 5.1 136 138
+ 5.58 1 2 cbr 1000 ------- 2 1.0 5.1 137 139
- 5.58 1 2 cbr 1000 ------- 2 1.0 5.1 137 139
r 5.598 1 2 cbr 1000 ------- 2 1.0 5.1 137 139
d 5.598 2 3 cbr 1000 ------- 2 1.0 5.1 137 139
+ 5.62 1 2 cbr 1000 ------- 2 1.0 5.1 138 140
- 5.62 1 2 cbr 1000 ------- 2 1.0 5.1 138 140
r 5.638 1 2 cbr 1000 ------- 2 1.0 5.1 138 140
d 5.638 2 3 cbr 1000 ------- 2 1.0 5.1 138 140
+ 5.66 1 2 cbr 1000 ------- 2 1.0 5.1 139 141
- 5.66 1 2 cbr 1000 ------- 2 1.0 5.1 139 141
r 5.678 1 2 cbr 1000 ------- 2 1.0 5.1 139 141
+ 5.678 2 3 cbr 1000 ------- 2 1.0 5.1 139 141
- 5.678 2 3 cbr 1000 ------- 2 1.0 5.1 139 141
+ 5.7 1 2 cbr 1000 ------- 2 1.0 5.1 140 142
- 5.7 1 2 cbr 1000 ------- 2 1.0 5.1 140 142
r 5.718 1 2 cbr 1000 ------- 2 1.0 5.1 140 142
d 5.718 2 3 cbr 1000 ------- 2 1.0 5.1 140 142
+ 5.74 1 2 cbr 1000 ------- 2 1.0 5.1 141 143
- 5.74 1 2 cbr 1000 ------- 2 1.0 5.1 141 143
r 5.758 1 2 cbr 1000 ------- 2 1.0 5.1 141 143
+ 5.758 2 3 cbr 1000 ------- 2 1.0 5.1 141 143
- 5.758 2 3 cbr 1000 ------- 2 1.0 5.1 141 143
+ 5.78 1 2 cbr 1000 ------- 2 1.0 5.1 142 144
- 5.78 1 2 cbr 1000 ------- 2 1.0 5.1 142 144
r 5.798 1 2 cbr 1000 ------- 2 1.0 5.1 142 144
+ 5.798 2 3 cbr 1000 ------- 2 1.0 5.1 142 144
- 5.798 2 3 cbr 1000 ------- 2 1.0 5.1 142 144
r 5.804667 2 3 cbr 1000 ------- 2 1.0 5.1 139 141
h 5.804667 3 6 cbr 1000 ------- 2 1.0 5.1 139 141
+ 5.82 1 2 cbr 1000 ------- 2 1.0 5.1 143 145
- 5.82 1 2 cbr 1000 ------- 2 1.0 5.1 143 145
r 5.838 1 2 cbr 1000 ------- 2 1.0 5.1 143 145
+ 5.838 2 3 cbr 1000 ------- 2 1.0 5.1 143 145
- 5.838 2 3 cbr 1000 ------- 2 1.0 5.1 143 145
+ 5.844667 3 6 cbr 1000 ------- 2 1.0 5.1 139 141
- 5.844667 3 6 cbr 1000 ------- 2 1.0 5.1 139 141
d 5.844671 4 6 cbr 1000 ------- 2 1.0 5.1 139 141
+ 5.86 1 2 cbr 1000 ------- 2 1.0 5.1 144 146
- 5.86 1 2 cbr 1000 ------- 2 1.0 5.1 144 146
r 5.878 1 2 cbr 1000 ------- 2 1.0 5.1 144 146
d 5.878 2 3 cbr 1000 ------- 2 1.0 5.1 144 146
r 5.884667 2 3 cbr 1000 ------- 2 1.0 5.1 141 143
h 5.884667 3 6 cbr 1000 ------- 2 1.0 5.1 141 143
r 5.884671 6 5 cbr 1000 ------- 2 1.0 5.1 139 141
+ 5.9 1 2 cbr 1000 ------- 2 1.0 5.1 145 147
- 5.9 1 2 cbr 1000 ------- 2 1.0 5.1 145 147
r 5.918 1 2 cbr 1000 ------- 2 1.0 5.1 145 147
+ 5.918 2 3 cbr 1000 ------- 2 1.0 5.1 145 147
- 5.918 2 3 cbr 1000 ------- 2 1.0 5.1 145 147
r 5.924667 2 3 cbr 1000 ------- 2 1.0 5.1 142 144
h 5.924667 3 6 cbr 1000 ------- 2 1.0 5.1 142 144
+ 5.924667 3 6 cbr 1000 ------- 2 1.0 5.1 141 143
- 5.924667 3 6 cbr 1000 ------- 2 1.0 5.1 141 143
d 5.924671 4 6 cbr 1000 ------- 2 1.0 5.1 141 143
+ 5.94 1 2 cbr 1000 ------- 2 1.0 5.1 146 148
- 5.94 1 2 cbr 1000 ------- 2 1.0 5.1 146 148
r 5.958 1 2 cbr 1000 ------- 2 1.0 5.1 146 148
d 5.958 2 3 cbr 1000 ------- 2 1.0 5.1 146 148
r 5.964667 2 3 cbr 1000 ------- 2 1.0 5.1 143 145
h 5.964667 3 6 cbr 1000 ------- 2 1.0 5.1 143 145
+ 5.964667 3 6 cbr 1000 ------- 2 1.0 5.1 142 144
- 5.964667 3 6 cbr 1000 ------- 2 1.0 5.1 142 144
r 5.964671 6 5 cbr 1000 ------- 2 1.0 5.1 141 143
d 5.964671 4 6 cbr 1000 ------- 2 1.0 5.1 142 144
+ 5.98 1 2 cbr 1000 ------- 2 1.0 5.1 147 149